      #Water

120 atoms
15 atom types

-250.0 250.000 xlo xhi
-250.0 250.000 ylo yhi
-250.0 250.000 zlo zhi

Masses

1   1.0080
2   12.0107
3   15.9994
4   14.0067
5   1.0
6   1.0
7   1.0
8   1.0
9   1.0
10  1.0
11  1.0
12  1.0
13  1.0
14  1.0
15  1.0

Atoms

1 3 1.0 0.5295 -1.3234 -2.3016
2 13 -1.0 0.5295 -1.3134 -2.3016
3 1 1.0 0.5723 -0.4272 -2.6699
4 13 -1.0 0.5723 -0.4172 -2.6699
5 1 1.0 1.2007 -1.3207 -1.5824
6 13 -1.0 1.2007 -1.3107 -1.5824
7 3 1.0 1.1505 -4.3269 2.0492
8 13 -1.0 1.1505 -4.3169 2.0492
9 1 1.0 1.5754 -5.0074 2.5789
10 13 -1.0 1.5754 -4.9974 2.5789
11 1 1.0 1.6095 -4.3425 1.1619
12 13 -1.0 1.6095 -4.3325 1.1619
13 3 1.0 0.4381 -4.2037 -2.3278
14 13 -1.0 0.4381 -4.1937 -2.3278
15 1 1.0 0.4479 -3.2814 -2.6254
16 13 -1.0 0.4479 -3.2714 -2.6254
17 1 1.0 -0.4593 -4.3356 -1.9771
18 13 -1.0 -0.4593 -4.3256 -1.9771
19 3 1.0 2.3578 -1.3047 -0.2554
20 13 -1.0 2.3578 -1.2947 -0.2554
21 1 1.0 2.7247 -0.4069 -0.2765
22 13 -1.0 2.7247 -0.3969 -0.2765
23 1 1.0 1.8667 -1.3545 0.5954
24 13 -1.0 1.8667 -1.3445 0.5954
25 3 1.0 0.9674 -1.5403 2.0978
26 13 -1.0 0.9674 -1.5303 2.0978
27 1 1.0 0.0040 -1.5116 1.9014
28 13 -1.0 0.0040 -1.5016 1.9014
29 1 1.0 1.1362 -2.4703 2.3376
30 13 -1.0 1.1362 -2.4603 2.3376
31 3 1.0 -1.6214 -4.2362 1.5167
32 13 -1.0 -1.6214 -4.2262 1.5167
33 1 1.0 -0.6825 -4.3682 1.7458
34 13 -1.0 -0.6825 -4.3582 1.7458
35 1 1.0 -1.8054 -3.3174 1.7695
36 13 -1.0 -1.8054 -3.3074 1.7695
37 3 1.0 2.3146 -4.1746 -0.3076
38 13 -1.0 2.3146 -4.1646 -0.3076
39 1 1.0 1.6760 -4.2700 -1.0483
40 13 -1.0 1.6760 -4.2600 -1.0483
41 1 1.0 2.6344 -3.2636 -0.3927
42 13 -1.0 2.6344 -3.2536 -0.3927
43 3 1.0 -1.7053 -1.3979 1.5217
44 13 -1.0 -1.7053 -1.3879 1.5217
45 1 1.0 -1.8092 -1.4089 0.5428
46 13 -1.0 -1.8092 -1.3989 0.5428
47 1 1.0 -1.9858 -0.5089 1.7922
48 13 -1.0 -1.9858 -0.4989 1.7922
49 3 1.0 -1.9588 -1.5396 -1.1956
50 13 -1.0 -1.9588 -1.5296 -1.1956
51 1 1.0 -1.0642 -1.4962 -1.6041
52 13 -1.0 -1.0642 -1.4862 -1.6041
53 1 1.0 -2.2414 -2.4651 -1.3153
54 13 -1.0 -2.2414 -2.4551 -1.3153
55 3 1.0 -2.1476 -4.3187 -1.0960
56 13 -1.0 -2.1476 -4.3087 -1.0960
57 1 1.0 -2.8159 -4.9832 -1.2850
58 13 -1.0 -2.8159 -4.9732 -1.2850
59 1 1.0 -1.9707 -4.3766 -0.1208
60 13 -1.0 -1.9707 -4.3666 -0.1208
61 3 1.0 0.4746 4.3699 -2.2650
62 13 -1.0 0.4746 4.3799 -2.2650
63 1 1.0 0.6433 5.0586 -2.9147
64 13 -1.0 0.6433 5.0686 -2.9147
65 1 1.0 1.1533 4.4864 -1.5642
66 13 -1.0 1.1533 4.4964 -1.5642
67 3 1.0 1.0474 1.2538 2.0766
68 13 -1.0 1.0474 1.2638 2.0766
69 1 1.0 1.2014 0.3481 2.3961
70 13 -1.0 1.2014 0.3581 2.3961
71 1 1.0 1.5086 1.2948 1.2090
72 13 -1.0 1.5086 1.3048 1.2090
73 3 1.0 0.3625 1.5168 -2.2808
74 13 -1.0 0.3625 1.5268 -2.2808
75 1 1.0 -0.5159 1.4317 -1.8441
76 13 -1.0 -0.5159 1.4417 -1.8441
77 1 1.0 0.4007 2.4411 -2.5755
78 13 -1.0 0.4007 2.4511 -2.5755
79 3 1.0 2.2586 4.3756 -0.1781
80 13 -1.0 2.2586 4.3856 -0.1781
81 1 1.0 1.7522 4.3218 0.6805
82 13 -1.0 1.7522 4.3318 0.6805
83 1 1.0 2.9532 5.0239 -0.0277
84 13 -1.0 2.9532 5.0339 -0.0277
85 3 1.0 0.9084 4.0758 2.0679
86 13 -1.0 0.9084 4.0858 2.0679
87 1 1.0 -0.0534 4.2151 1.9880
88 13 -1.0 -0.0534 4.2251 1.9880
89 1 1.0 1.0043 3.1514 2.3527
90 13 -1.0 1.0043 3.1614 2.3527
91 3 1.0 -1.6530 1.4102 1.6528
92 13 -1.0 -1.6530 1.4202 1.6528
93 1 1.0 -0.6849 1.3736 1.8230
94 13 -1.0 -0.6849 1.3836 1.8230
95 1 1.0 -1.9070 2.3267 1.8571
96 13 -1.0 -1.9070 2.3367 1.8571
97 3 1.0 2.2990 1.5200 -0.3450
98 13 -1.0 2.2990 1.5300 -0.3450
99 1 1.0 2.5842 2.4485 -0.3325
100 13 -1.0 2.5842 2.4585 -0.3325
101 1 1.0 1.6119 1.4945 -1.0495
102 13 -1.0 1.6119 1.5045 -1.0495
103 3 1.0 -1.8671 4.2192 1.6236
104 13 -1.0 -1.8671 4.2292 1.6236
105 1 1.0 -2.4786 4.8661 1.9871
106 13 -1.0 -2.4786 4.8761 1.9871
107 1 1.0 -1.9895 4.2447 0.6390
108 13 -1.0 -1.9895 4.2547 0.6390
109 3 1.0 -2.0977 4.0619 -1.0269
110 13 -1.0 -2.0977 4.0719 -1.0269
111 1 1.0 -2.2913 3.1297 -1.2234
112 13 -1.0 -2.2913 3.1397 -1.2234
113 1 1.0 -1.2641 4.2445 -1.4924
114 13 -1.0 -1.2641 4.2545 -1.4924
115 3 1.0 -2.0547 1.2414 -1.0429
116 13 -1.0 -2.0547 1.2514 -1.0429
117 1 1.0 -2.3440 0.3334 -1.2398
118 13 -1.0 -2.3440 0.3434 -1.2398
119 1 1.0 -1.9204 1.2549 -0.0679
120 13 -1.0 -1.9204 1.2649 -0.0679
