#Water

6 atoms
7 atom types

-50.0 50.000 xlo xhi
-50.0 50.000 ylo yhi
-50.0 50.000 zlo zhi

Masses

1   1.0080 #H 
2   15.9994 #O 
3   0.01 #El 
4   35.453 #Cl
5   22.99  #Na
6   40.078 #Ca
7   126.90447 #I

Atoms

1 2 1.0 0.5295 -1.3234 -2.3016
2 3 -1.0 0.5295 -1.3134 -2.3016
3 1 1.0 0.5723 -0.4272 -2.6699
4 3 -1.0 0.5723 -0.4172 -2.6699
5 1 1.0 1.2007 -1.3207 -1.5824
6 3 -1.0 1.2007 -1.3107 -1.5824
