      #Water

2400 atoms
7 atom types

-12.0 12.000 xlo xhi
-12.0 12.000 ylo yhi
-12.0 12.000 zlo zhi

Masses

1   1.0080 #H 
2   15.9994 #O 
3   0.01 #El 
4   35.453 #Cl
5   22.99  #Na
6   40.078 #Ca
7   126.90447 #I

Atoms

1 2 1.0 -8.3320 -1.9180 3.9040
2 3 -1.0 -8.3320 -1.9080 3.9040
3 1 1.0 -8.7760 -1.5490 3.1010
4 3 -1.0 -8.7760 -1.5390 3.1010
5 1 1.0 -8.9080 -1.6210 4.6270
6 3 -1.0 -8.9080 -1.6110 4.6270
7 2 1.0 -5.9670 -7.1240 8.8910
8 3 -1.0 -5.9670 -7.1140 8.8910
9 1 1.0 -5.9220 -6.7760 9.7980
10 3 -1.0 -5.9220 -6.7660 9.7980
11 1 1.0 -5.4080 -7.9120 8.9610
12 3 -1.0 -5.4080 -7.9020 8.9610
13 2 1.0 -6.8140 4.6960 0.0720
14 3 -1.0 -6.8140 4.7060 0.0720
15 1 1.0 -5.9170 4.9790 -0.1840
16 3 -1.0 -5.9170 4.9890 -0.1840
17 1 1.0 -6.6630 3.8320 0.4900
18 3 -1.0 -6.6630 3.8420 0.4900
19 2 1.0 -3.6760 1.8110 9.3320
20 3 -1.0 -3.6760 1.8210 9.3320
21 1 1.0 -3.3670 1.3480 10.1120
22 3 -1.0 -3.3670 1.3580 10.1120
23 1 1.0 -3.4940 1.1160 8.6450
24 3 -1.0 -3.4940 1.1260 8.6450
25 2 1.0 -8.2140 4.3180 -10.6900
26 3 -1.0 -8.2140 4.3280 -10.6900
27 1 1.0 -8.2190 3.3880 -10.8040
28 3 -1.0 -8.2190 3.3980 -10.8040
29 1 1.0 -7.4720 4.5800 -11.2190
30 3 -1.0 -7.4720 4.5900 -11.2190
31 2 1.0 -5.7950 -5.0090 6.4420
32 3 -1.0 -5.7950 -4.9990 6.4420
33 1 1.0 -5.2180 -4.6530 7.1520
34 3 -1.0 -5.2180 -4.6430 7.1520
35 1 1.0 -6.6910 -4.9380 6.8000
36 3 -1.0 -6.6910 -4.9280 6.8000
37 2 1.0 4.1260 2.7010 -7.4230
38 3 -1.0 4.1260 2.7110 -7.4230
39 1 1.0 4.0700 2.2720 -8.2740
40 3 -1.0 4.0700 2.2820 -8.2740
41 1 1.0 4.8050 3.4540 -7.5550
42 3 -1.0 4.8050 3.4640 -7.5550
43 2 1.0 -9.2500 -3.1560 -2.3710
44 3 -1.0 -9.2500 -3.1460 -2.3710
45 1 1.0 -9.8900 -3.7100 -2.0020
46 3 -1.0 -9.8900 -3.7000 -2.0020
47 1 1.0 -9.8360 -2.7550 -3.0380
48 3 -1.0 -9.8360 -2.7450 -3.0380
49 2 1.0 -8.0650 4.1950 10.1090
50 3 -1.0 -8.0650 4.2050 10.1090
51 1 1.0 -7.1300 4.0340 9.9850
52 3 -1.0 -7.1300 4.0440 9.9850
53 1 1.0 -8.3450 3.3670 10.5810
54 3 -1.0 -8.3450 3.3770 10.5810
55 2 1.0 -1.3260 -3.0910 -7.0140
56 3 -1.0 -1.3260 -3.0810 -7.0140
57 1 1.0 -1.0020 -3.1290 -6.0680
58 3 -1.0 -1.0020 -3.1190 -6.0680
59 1 1.0 -2.2520 -2.7300 -6.9250
60 3 -1.0 -2.2520 -2.7200 -6.9250
61 2 1.0 -11.9980 -6.3330 2.5910
62 3 -1.0 -11.9980 -6.3230 2.5910
63 1 1.0 -11.5170 -6.0100 1.8300
64 3 -1.0 -11.5170 -6.0000 1.8300
65 1 1.0 -11.3920 -6.2190 3.3470
66 3 -1.0 -11.3920 -6.2090 3.3470
67 2 1.0 -2.1180 -2.8440 2.9160
68 3 -1.0 -2.1180 -2.8340 2.9160
69 1 1.0 -2.4260 -2.2470 3.5970
70 3 -1.0 -2.4260 -2.2370 3.5970
71 1 1.0 -1.9790 -3.7360 3.2890
72 3 -1.0 -1.9790 -3.7260 3.2890
73 2 1.0 -10.3390 -5.3190 -10.0570
74 3 -1.0 -10.3390 -5.3090 -10.0570
75 1 1.0 -10.0570 -6.2610 -10.0190
76 3 -1.0 -10.0570 -6.2510 -10.0190
77 1 1.0 -11.2220 -5.4010 -10.5170
78 3 -1.0 -11.2220 -5.3910 -10.5170
79 2 1.0 -7.1790 8.6030 -0.7610
80 3 -1.0 -7.1790 8.6130 -0.7610
81 1 1.0 -6.5340 8.7820 -0.0370
82 3 -1.0 -6.5340 8.7920 -0.0370
83 1 1.0 -6.6160 8.9140 -1.5440
84 3 -1.0 -6.6160 8.9240 -1.5440
85 2 1.0 3.0220 8.8550 0.8310
86 3 -1.0 3.0220 8.8650 0.8310
87 1 1.0 2.2220 8.8090 1.2920
88 3 -1.0 2.2220 8.8190 1.2920
89 1 1.0 2.6730 9.0570 -0.0820
90 3 -1.0 2.6730 9.0670 -0.0820
91 2 1.0 -10.6610 -8.2180 10.8140
92 3 -1.0 -10.6610 -8.2080 10.8140
93 1 1.0 -11.1610 -8.5750 10.0870
94 3 -1.0 -11.1610 -8.5650 10.0870
95 1 1.0 -10.2250 -8.9230 11.1380
96 3 -1.0 -10.2250 -8.9130 11.1380
97 2 1.0 -11.5150 3.1370 10.4760
98 3 -1.0 -11.5150 3.1470 10.4760
99 1 1.0 -11.3560 3.4250 11.3490
100 3 -1.0 -11.3560 3.4350 11.3490
101 1 1.0 -11.6880 3.9610 9.9750
102 3 -1.0 -11.6880 3.9710 9.9750
103 2 1.0 -1.5740 -4.3960 -9.5960
104 3 -1.0 -1.5740 -4.3860 -9.5960
105 1 1.0 -1.2390 -3.5990 -10.0060
106 3 -1.0 -1.2390 -3.5890 -10.0060
107 1 1.0 -1.7520 -4.1110 -8.6920
108 3 -1.0 -1.7520 -4.1010 -8.6920
109 2 1.0 -7.7310 10.7520 4.2650
110 3 -1.0 -7.7310 10.7620 4.2650
111 1 1.0 -7.8510 11.6800 3.8880
112 3 -1.0 -7.8510 11.6900 3.8880
113 1 1.0 -6.9390 10.7960 4.7760
114 3 -1.0 -6.9390 10.8060 4.7760
115 2 1.0 10.5720 -5.7580 -8.5220
116 3 -1.0 10.5720 -5.7480 -8.5220
117 1 1.0 9.7050 -6.1550 -8.1700
118 3 -1.0 9.7050 -6.1450 -8.1700
119 1 1.0 10.9510 -6.3410 -9.1420
120 3 -1.0 10.9510 -6.3310 -9.1420
121 2 1.0 -1.0740 -6.6350 -10.9820
122 3 -1.0 -1.0740 -6.6250 -10.9820
123 1 1.0 -0.8620 -7.2310 -10.2460
124 3 -1.0 -0.8620 -7.2210 -10.2460
125 1 1.0 -1.3430 -5.7880 -10.5070
126 3 -1.0 -1.3430 -5.7780 -10.5070
127 2 1.0 -3.3530 -7.6860 7.2780
128 3 -1.0 -3.3530 -7.6760 7.2780
129 1 1.0 -4.0360 -8.3890 7.3260
130 3 -1.0 -4.0360 -8.3790 7.3260
131 1 1.0 -3.9570 -6.9360 7.1530
132 3 -1.0 -3.9570 -6.9260 7.1530
133 2 1.0 -3.6190 5.3190 11.2750
134 3 -1.0 -3.6190 5.3290 11.2750
135 1 1.0 -4.4840 5.3400 11.6950
136 3 -1.0 -4.4840 5.3500 11.6950
137 1 1.0 -3.5690 6.2630 11.0090
138 3 -1.0 -3.5690 6.2730 11.0090
139 2 1.0 -7.7010 5.7740 -4.8310
140 3 -1.0 -7.7010 5.7840 -4.8310
141 1 1.0 -8.6970 5.8030 -4.6780
142 3 -1.0 -8.6970 5.8130 -4.6780
143 1 1.0 -7.4670 6.7550 -5.0760
144 3 -1.0 -7.4670 6.7650 -5.0760
145 2 1.0 -3.1080 0.9770 -6.6790
146 3 -1.0 -3.1080 0.9870 -6.6790
147 1 1.0 -3.8810 0.4780 -6.5570
148 3 -1.0 -3.8810 0.4880 -6.5570
149 1 1.0 -2.6580 0.5570 -7.4640
150 3 -1.0 -2.6580 0.5670 -7.4640
151 2 1.0 -9.8260 6.4680 -9.7880
152 3 -1.0 -9.8260 6.4780 -9.7880
153 1 1.0 -9.3680 5.6280 -9.7970
154 3 -1.0 -9.3680 5.6380 -9.7970
155 1 1.0 -9.0690 7.1200 -9.7190
156 3 -1.0 -9.0690 7.1300 -9.7190
157 2 1.0 1.6120 5.6800 6.6220
158 3 -1.0 1.6120 5.6900 6.6220
159 1 1.0 1.7440 5.4140 7.5080
160 3 -1.0 1.7440 5.4240 7.5080
161 1 1.0 2.5260 5.8310 6.3470
162 3 -1.0 2.5260 5.8410 6.3470
163 2 1.0 3.4140 -5.4310 -9.4990
164 3 -1.0 3.4140 -5.4210 -9.4990
165 1 1.0 4.2240 -5.1420 -9.8720
166 3 -1.0 4.2240 -5.1320 -9.8720
167 1 1.0 2.8080 -5.3000 -10.3290
168 3 -1.0 2.8080 -5.2900 -10.3290
169 2 1.0 -2.0650 0.8760 -1.8090
170 3 -1.0 -2.0650 0.8860 -1.8090
171 1 1.0 -2.2910 0.0980 -2.3660
172 3 -1.0 -2.2910 0.1080 -2.3660
173 1 1.0 -2.5280 0.7660 -0.9820
174 3 -1.0 -2.5280 0.7760 -0.9820
175 2 1.0 -4.9400 -9.9260 7.8300
176 3 -1.0 -4.9400 -9.9160 7.8300
177 1 1.0 -4.3500 -10.3810 8.5280
178 3 -1.0 -4.3500 -10.3710 8.5280
179 1 1.0 -5.8520 -10.2040 8.0350
180 3 -1.0 -5.8520 -10.1940 8.0350
181 2 1.0 1.8910 -10.0810 -9.0080
182 3 -1.0 1.8910 -10.0710 -9.0080
183 1 1.0 2.1980 -9.3190 -8.5780
184 3 -1.0 2.1980 -9.3090 -8.5780
185 1 1.0 1.2120 -10.4230 -8.4220
186 3 -1.0 1.2120 -10.4130 -8.4220
187 2 1.0 -3.1770 -1.4190 -3.1730
188 3 -1.0 -3.1770 -1.4090 -3.1730
189 1 1.0 -3.8170 -1.2470 -3.8520
190 3 -1.0 -3.8170 -1.2370 -3.8520
191 1 1.0 -3.6110 -1.9390 -2.4660
192 3 -1.0 -3.6110 -1.9290 -2.4660
193 2 1.0 -2.9220 -0.0330 0.7340
194 3 -1.0 -2.9220 -0.0230 0.7340
195 1 1.0 -3.7720 -0.4390 0.9930
196 3 -1.0 -3.7720 -0.4290 0.9930
197 1 1.0 -2.4880 0.1940 1.5600
198 3 -1.0 -2.4880 0.2040 1.5600
199 2 1.0 -1.7180 -11.3600 -9.9470
200 3 -1.0 -1.7180 -11.3500 -9.9470
201 1 1.0 -1.6330 -11.0410 -8.9840
202 3 -1.0 -1.6330 -11.0310 -8.9840
203 1 1.0 -2.2570 -10.6770 -10.3330
204 3 -1.0 -2.2570 -10.6670 -10.3330
205 2 1.0 -7.3820 -3.8750 -4.2230
206 3 -1.0 -7.3820 -3.8650 -4.2230
207 1 1.0 -6.5950 -4.0810 -3.6860
208 3 -1.0 -6.5950 -4.0710 -3.6860
209 1 1.0 -7.9980 -3.5420 -3.5780
210 3 -1.0 -7.9980 -3.5320 -3.5780
211 2 1.0 -8.5970 -7.3130 -2.1850
212 3 -1.0 -8.5970 -7.3030 -2.1850
213 1 1.0 -8.8910 -6.7280 -2.9030
214 3 -1.0 -8.8910 -6.7180 -2.9030
215 1 1.0 -8.1830 -8.0270 -2.6730
216 3 -1.0 -8.1830 -8.0170 -2.6730
217 2 1.0 -8.7240 -4.5350 7.3250
218 3 -1.0 -8.7240 -4.5250 7.3250
219 1 1.0 -9.2280 -5.0090 7.9640
220 3 -1.0 -9.2280 -4.9990 7.9640
221 1 1.0 -8.3960 -3.7120 7.7530
222 3 -1.0 -8.3960 -3.7020 7.7530
223 2 1.0 -8.8810 -1.6750 1.1580
224 3 -1.0 -8.8810 -1.6650 1.1580
225 1 1.0 -8.4020 -1.1000 0.5120
226 3 -1.0 -8.4020 -1.0900 0.5120
227 1 1.0 -8.5600 -2.5700 0.9620
228 3 -1.0 -8.5600 -2.5600 0.9620
229 2 1.0 -9.6220 -6.1940 4.2530
230 3 -1.0 -9.6220 -6.1840 4.2530
231 1 1.0 -9.8430 -5.8390 5.0990
232 3 -1.0 -9.8430 -5.8290 5.0990
233 1 1.0 -8.6990 -5.9680 4.1260
234 3 -1.0 -8.6990 -5.9580 4.1260
235 2 1.0 -5.6180 10.2710 -9.6810
236 3 -1.0 -5.6180 10.2810 -9.6810
237 1 1.0 -6.4500 10.0350 -10.1530
238 3 -1.0 -6.4500 10.0450 -10.1530
239 1 1.0 -5.1410 9.4720 -9.8080
240 3 -1.0 -5.1410 9.4820 -9.8080
241 2 1.0 -7.9830 -8.0950 7.4180
242 3 -1.0 -7.9830 -8.0850 7.4180
243 1 1.0 -8.8580 -7.9580 7.1320
244 3 -1.0 -8.8580 -7.9480 7.1320
245 1 1.0 -7.4180 -7.2730 7.2950
246 3 -1.0 -7.4180 -7.2630 7.2950
247 2 1.0 -9.6560 8.4720 9.6310
248 3 -1.0 -9.6560 8.4820 9.6310
249 1 1.0 -9.0680 8.8210 8.9450
250 3 -1.0 -9.0680 8.8310 8.9450
251 1 1.0 -10.5330 8.5480 9.1380
252 3 -1.0 -10.5330 8.5580 9.1380
253 2 1.0 8.6130 1.6160 -0.9340
254 3 -1.0 8.6130 1.6260 -0.9340
255 1 1.0 8.7390 1.9590 -1.7820
256 3 -1.0 8.7390 1.9690 -1.7820
257 1 1.0 7.6190 1.8160 -0.7500
258 3 -1.0 7.6190 1.8260 -0.7500
259 2 1.0 2.5260 -1.4680 8.1370
260 3 -1.0 2.5260 -1.4580 8.1370
261 1 1.0 2.1620 -2.2670 8.5030
262 3 -1.0 2.1620 -2.2570 8.5030
263 1 1.0 2.4660 -1.5800 7.1940
264 3 -1.0 2.4660 -1.5700 7.1940
265 2 1.0 -6.4270 2.8040 7.0900
266 3 -1.0 -6.4270 2.8140 7.0900
267 1 1.0 -6.0410 3.3390 7.8080
268 3 -1.0 -6.0410 3.3490 7.8080
269 1 1.0 -6.1310 3.4130 6.3310
270 3 -1.0 -6.1310 3.4230 6.3310
271 2 1.0 4.2830 -4.6460 10.7810
272 3 -1.0 4.2830 -4.6360 10.7810
273 1 1.0 3.6400 -3.9420 10.4490
274 3 -1.0 3.6400 -3.9320 10.4490
275 1 1.0 3.9730 -5.4400 10.3790
276 3 -1.0 3.9730 -5.4300 10.3790
277 2 1.0 10.8720 6.4410 4.7880
278 3 -1.0 10.8720 6.4510 4.7880
279 1 1.0 10.2010 5.8640 4.3790
280 3 -1.0 10.2010 5.8740 4.3790
281 1 1.0 10.3350 6.9810 5.4250
282 3 -1.0 10.3350 6.9910 5.4250
283 2 1.0 -6.5420 1.0970 -7.4110
284 3 -1.0 -6.5420 1.1070 -7.4110
285 1 1.0 -6.3270 1.0190 -8.3880
286 3 -1.0 -6.3270 1.0290 -8.3880
287 1 1.0 -7.1010 1.8940 -7.3430
288 3 -1.0 -7.1010 1.9040 -7.3430
289 2 1.0 -7.4480 -10.6300 8.3300
290 3 -1.0 -7.4480 -10.6200 8.3300
291 1 1.0 -7.7260 -9.8060 7.9530
292 3 -1.0 -7.7260 -9.7960 7.9530
293 1 1.0 -7.7650 -11.1990 7.5710
294 3 -1.0 -7.7650 -11.1890 7.5710
295 2 1.0 -6.8400 1.7440 -4.0460
296 3 -1.0 -6.8400 1.7540 -4.0460
297 1 1.0 -5.9520 1.4220 -3.7930
298 3 -1.0 -5.9520 1.4320 -3.7930
299 1 1.0 -6.9920 2.4930 -3.4720
300 3 -1.0 -6.9920 2.5030 -3.4720
301 2 1.0 -1.6100 -5.6140 6.8280
302 3 -1.0 -1.6100 -5.6040 6.8280
303 1 1.0 -1.3120 -5.5160 7.7310
304 3 -1.0 -1.3120 -5.5060 7.7310
305 1 1.0 -2.1560 -6.4110 6.9210
306 3 -1.0 -2.1560 -6.4010 6.9210
307 2 1.0 -10.3220 9.9420 -10.9650
308 3 -1.0 -10.3220 9.9520 -10.9650
309 1 1.0 -10.7280 9.2800 -10.4080
310 3 -1.0 -10.7280 9.2900 -10.4080
311 1 1.0 -10.5020 10.8090 -10.5070
312 3 -1.0 -10.5020 10.8190 -10.5070
313 2 1.0 -2.3700 9.5470 -9.0000
314 3 -1.0 -2.3700 9.5570 -9.0000
315 1 1.0 -2.3990 10.4710 -9.3570
316 3 -1.0 -2.3990 10.4810 -9.3570
317 1 1.0 -2.7130 8.9540 -9.6880
318 3 -1.0 -2.7130 8.9640 -9.6880
319 2 1.0 -9.6560 -1.4290 -9.3760
320 3 -1.0 -9.6560 -1.4190 -9.3760
321 1 1.0 -9.8780 -1.2470 -8.4470
322 3 -1.0 -9.8780 -1.2370 -8.4470
323 1 1.0 -9.0530 -2.2090 -9.3830
324 3 -1.0 -9.0530 -2.1990 -9.3830
325 2 1.0 -11.1770 11.6680 -9.1120
326 3 -1.0 -11.1770 11.6780 -9.1120
327 1 1.0 -10.3640 11.3160 -8.6600
328 3 -1.0 -10.3640 11.3260 -8.6600
329 1 1.0 -11.7470 11.9780 -8.3600
330 3 -1.0 -11.7470 11.9880 -8.3600
331 2 1.0 -9.2900 -5.8150 -4.4600
332 3 -1.0 -9.2900 -5.8050 -4.4600
333 1 1.0 -9.5330 -5.7640 -5.4390
334 3 -1.0 -9.5330 -5.7540 -5.4390
335 1 1.0 -8.5900 -5.1450 -4.4200
336 3 -1.0 -8.5900 -5.1350 -4.4200
337 2 1.0 -5.0890 7.4580 5.3350
338 3 -1.0 -5.0890 7.4680 5.3350
339 1 1.0 -4.4830 8.1180 4.9570
340 3 -1.0 -4.4830 8.1280 4.9570
341 1 1.0 -5.6850 7.1360 4.5880
342 3 -1.0 -5.6850 7.1460 4.5880
343 2 1.0 4.1920 10.4030 -8.2180
344 3 -1.0 4.1920 10.4130 -8.2180
345 1 1.0 4.3630 10.8810 -7.3780
346 3 -1.0 4.3630 10.8910 -7.3780
347 1 1.0 4.4270 11.0650 -8.9140
348 3 -1.0 4.4270 11.0750 -8.9140
349 2 1.0 1.5400 10.2200 -9.2520
350 3 -1.0 1.5400 10.2300 -9.2520
351 1 1.0 0.9650 10.4750 -8.5380
352 3 -1.0 0.9650 10.4850 -8.5380
353 1 1.0 2.4280 10.4040 -8.9260
354 3 -1.0 2.4280 10.4140 -8.9260
355 2 1.0 -1.0710 2.7500 -6.2820
356 3 -1.0 -1.0710 2.7600 -6.2820
357 1 1.0 -1.9500 2.5410 -6.5920
358 3 -1.0 -1.9500 2.5510 -6.5920
359 1 1.0 -0.5990 1.8790 -6.2830
360 3 -1.0 -0.5990 1.8890 -6.2830
361 2 1.0 11.3310 9.6190 6.0690
362 3 -1.0 11.3310 9.6290 6.0690
363 1 1.0 11.1370 10.5160 6.4560
364 3 -1.0 11.1370 10.5260 6.4560
365 1 1.0 10.6630 8.9850 6.4500
366 3 -1.0 10.6630 8.9950 6.4500
367 2 1.0 4.5070 5.1700 9.0060
368 3 -1.0 4.5070 5.1800 9.0060
369 1 1.0 5.2260 5.0060 8.2950
370 3 -1.0 5.2260 5.0160 8.2950
371 1 1.0 4.0300 4.2970 9.0820
372 3 -1.0 4.0300 4.3070 9.0820
373 2 1.0 -11.2530 -7.5310 -1.4210
374 3 -1.0 -11.2530 -7.5210 -1.4210
375 1 1.0 -11.5740 -8.4320 -1.6610
376 3 -1.0 -11.5740 -8.4220 -1.6610
377 1 1.0 -10.4950 -7.4150 -2.0100
378 3 -1.0 -10.4950 -7.4050 -2.0100
379 2 1.0 -6.6440 -6.6120 4.0460
380 3 -1.0 -6.6440 -6.6020 4.0460
381 1 1.0 -6.1160 -5.9360 4.4610
382 3 -1.0 -6.1160 -5.9260 4.4610
383 1 1.0 -6.4080 -7.3780 4.5370
384 3 -1.0 -6.4080 -7.3680 4.5370
385 2 1.0 -1.2960 -5.2790 3.8830
386 3 -1.0 -1.2960 -5.2690 3.8830
387 1 1.0 -1.0990 -5.0880 4.8360
388 3 -1.0 -1.0990 -5.0780 4.8360
389 1 1.0 -1.8730 -6.0280 3.9980
390 3 -1.0 -1.8730 -6.0180 3.9980
391 2 1.0 -0.2370 7.6140 -2.0420
392 3 -1.0 -0.2370 7.6240 -2.0420
393 1 1.0 0.2790 8.4050 -2.1340
394 3 -1.0 0.2790 8.4150 -2.1340
395 1 1.0 0.4350 6.9050 -2.0990
396 3 -1.0 0.4350 6.9150 -2.0990
397 2 1.0 -4.9730 -9.7760 1.4110
398 3 -1.0 -4.9730 -9.7660 1.4110
399 1 1.0 -5.8150 -9.1990 1.5350
400 3 -1.0 -5.8150 -9.1890 1.5350
401 1 1.0 -5.3080 -10.5970 1.7420
402 3 -1.0 -5.3080 -10.5870 1.7420
403 2 1.0 5.8120 -6.2290 -6.1240
404 3 -1.0 5.8120 -6.2190 -6.1240
405 1 1.0 5.2200 -5.6840 -6.6200
406 3 -1.0 5.2200 -5.6740 -6.6200
407 1 1.0 5.5510 -7.1310 -6.3310
408 3 -1.0 5.5510 -7.1210 -6.3310
409 2 1.0 -7.9720 -4.3010 0.7760
410 3 -1.0 -7.9720 -4.2910 0.7760
411 1 1.0 -7.4230 -4.8070 0.1380
412 3 -1.0 -7.4230 -4.7970 0.1380
413 1 1.0 -8.8290 -4.6800 0.5440
414 3 -1.0 -8.8290 -4.6700 0.5440
415 2 1.0 10.1330 -9.1140 7.8430
416 3 -1.0 10.1330 -9.1040 7.8430
417 1 1.0 10.9290 -9.4040 8.2620
418 3 -1.0 10.9290 -9.3940 8.2620
419 1 1.0 9.4860 -9.1720 8.5610
420 3 -1.0 9.4860 -9.1620 8.5610
421 2 1.0 0.4930 -2.5490 -9.7850
422 3 -1.0 0.4930 -2.5390 -9.7850
423 1 1.0 0.9080 -2.1600 -9.0130
424 3 -1.0 0.9080 -2.1500 -9.0130
425 1 1.0 0.9820 -3.3590 -9.9610
426 3 -1.0 0.9820 -3.3490 -9.9610
427 2 1.0 -0.8230 -2.3900 -4.0720
428 3 -1.0 -0.8230 -2.3800 -4.0720
429 1 1.0 -1.5570 -1.8280 -3.9470
430 3 -1.0 -1.5570 -1.8180 -3.9470
431 1 1.0 -1.1340 -3.2120 -3.7020
432 3 -1.0 -1.1340 -3.2020 -3.7020
433 2 1.0 -10.1620 -8.7940 3.3980
434 3 -1.0 -10.1620 -8.7840 3.3980
435 1 1.0 -9.7990 -7.9190 3.5450
436 3 -1.0 -9.7990 -7.9090 3.5450
437 1 1.0 -9.8830 -9.0010 2.4220
438 3 -1.0 -9.8830 -8.9910 2.4220
439 2 1.0 4.1330 0.5930 4.9080
440 3 -1.0 4.1330 0.6030 4.9080
441 1 1.0 3.3520 0.7690 4.3910
442 3 -1.0 3.3520 0.7790 4.3910
443 1 1.0 3.8870 -0.1240 5.5110
444 3 -1.0 3.8870 -0.1140 5.5110
445 2 1.0 -10.1010 -0.3760 5.8930
446 3 -1.0 -10.1010 -0.3660 5.8930
447 1 1.0 -10.8610 -0.3220 5.3050
448 3 -1.0 -10.8610 -0.3120 5.3050
449 1 1.0 -9.7420 0.5350 5.8550
450 3 -1.0 -9.7420 0.5450 5.8550
451 2 1.0 -2.7800 1.9040 5.3400
452 3 -1.0 -2.7800 1.9140 5.3400
453 1 1.0 -1.9380 2.1980 5.7380
454 3 -1.0 -1.9380 2.2080 5.7380
455 1 1.0 -2.6060 0.9990 5.1020
456 3 -1.0 -2.6060 1.0090 5.1020
457 2 1.0 -8.5420 -2.1320 10.4190
458 3 -1.0 -8.5420 -2.1220 10.4190
459 1 1.0 -7.6020 -1.9840 10.6540
460 3 -1.0 -7.6020 -1.9740 10.6540
461 1 1.0 -8.5520 -1.8110 9.4950
462 3 -1.0 -8.5520 -1.8010 9.4950
463 2 1.0 6.4410 4.1340 -8.1600
464 3 -1.0 6.4410 4.1440 -8.1600
465 1 1.0 6.6100 4.4880 -9.0320
466 3 -1.0 6.6100 4.4980 -9.0320
467 1 1.0 7.1130 3.4070 -8.0390
468 3 -1.0 7.1130 3.4170 -8.0390
469 2 1.0 3.4300 -8.7260 -4.5930
470 3 -1.0 3.4300 -8.7160 -4.5930
471 1 1.0 3.4580 -9.2590 -3.8430
472 3 -1.0 3.4580 -9.2490 -3.8430
473 1 1.0 3.9330 -9.2600 -5.2300
474 3 -1.0 3.9330 -9.2500 -5.2300
475 2 1.0 1.1340 -7.4650 -5.4410
476 3 -1.0 1.1340 -7.4550 -5.4410
477 1 1.0 0.4340 -8.0680 -5.0620
478 3 -1.0 0.4340 -8.0580 -5.0620
479 1 1.0 1.9590 -7.8380 -5.0350
480 3 -1.0 1.9590 -7.8280 -5.0350
481 2 1.0 4.3210 7.4950 3.8700
482 3 -1.0 4.3210 7.5050 3.8700
483 1 1.0 4.9600 7.1590 3.1920
484 3 -1.0 4.9600 7.1690 3.1920
485 1 1.0 4.8540 8.1320 4.3880
486 3 -1.0 4.8540 8.1420 4.3880
487 2 1.0 -1.7050 2.0660 2.3200
488 3 -1.0 -1.7050 2.0760 2.3200
489 1 1.0 -1.4080 2.0670 3.2260
490 3 -1.0 -1.4080 2.0770 3.2260
491 1 1.0 -2.6780 2.2260 2.3500
492 3 -1.0 -2.6780 2.2360 2.3500
493 2 1.0 4.0080 5.7970 -0.5900
494 3 -1.0 4.0080 5.8070 -0.5900
495 1 1.0 4.6950 5.7020 -1.3160
496 3 -1.0 4.6950 5.7120 -1.3160
497 1 1.0 3.1860 5.5210 -1.0580
498 3 -1.0 3.1860 5.5310 -1.0580
499 2 1.0 3.3980 -10.4480 6.2460
500 3 -1.0 3.3980 -10.4380 6.2460
501 1 1.0 4.0160 -10.0490 5.5660
502 3 -1.0 4.0160 -10.0390 5.5660
503 1 1.0 2.5740 -9.9890 6.1090
504 3 -1.0 2.5740 -9.9790 6.1090
505 2 1.0 -4.1700 7.7510 -10.0050
506 3 -1.0 -4.1700 7.7610 -10.0050
507 1 1.0 -4.7430 7.8700 -10.7530
508 3 -1.0 -4.7430 7.8800 -10.7530
509 1 1.0 -3.6710 6.9230 -10.1150
510 3 -1.0 -3.6710 6.9330 -10.1150
511 2 1.0 3.0270 -0.7510 -2.1940
512 3 -1.0 3.0270 -0.7410 -2.1940
513 1 1.0 3.6360 -1.0470 -2.8960
514 3 -1.0 3.6360 -1.0370 -2.8960
515 1 1.0 2.9290 0.1940 -2.4550
516 3 -1.0 2.9290 0.2040 -2.4550
517 2 1.0 -1.7260 -0.5520 8.9590
518 3 -1.0 -1.7260 -0.5420 8.9590
519 1 1.0 -1.1070 -0.9270 9.6540
520 3 -1.0 -1.1070 -0.9170 9.6540
521 1 1.0 -1.6560 -1.1090 8.2380
522 3 -1.0 -1.6560 -1.0990 8.2380
523 2 1.0 -0.5270 -5.9250 9.7020
524 3 -1.0 -0.5270 -5.9150 9.7020
525 1 1.0 0.0460 -6.3330 10.4310
526 3 -1.0 0.0460 -6.3230 10.4310
527 1 1.0 -1.4460 -6.0610 10.1000
528 3 -1.0 -1.4460 -6.0510 10.1000
529 2 1.0 9.0080 -8.7300 3.1730
530 3 -1.0 9.0080 -8.7200 3.1730
531 1 1.0 8.3900 -7.9640 3.0840
532 3 -1.0 8.3900 -7.9540 3.0840
533 1 1.0 9.7680 -8.4080 2.7490
534 3 -1.0 9.7680 -8.3980 2.7490
535 2 1.0 -5.2000 4.6590 5.1840
536 3 -1.0 -5.2000 4.6690 5.1840
537 1 1.0 -4.8570 4.6490 4.3270
538 3 -1.0 -4.8570 4.6590 4.3270
539 1 1.0 -4.8910 5.5020 5.5680
540 3 -1.0 -4.8910 5.5120 5.5680
541 2 1.0 2.6030 6.1100 -8.7870
542 3 -1.0 2.6030 6.1200 -8.7870
543 1 1.0 2.2750 5.6550 -8.0370
544 3 -1.0 2.2750 5.6650 -8.0370
545 1 1.0 1.8420 6.6060 -9.1220
546 3 -1.0 1.8420 6.6160 -9.1220
547 2 1.0 -7.2470 8.1390 -6.5250
548 3 -1.0 -7.2470 8.1490 -6.5250
549 1 1.0 -7.2310 9.0530 -6.1540
550 3 -1.0 -7.2310 9.0630 -6.1540
551 1 1.0 -6.3370 8.0310 -6.7990
552 3 -1.0 -6.3370 8.0410 -6.7990
553 2 1.0 -10.3850 5.3550 2.3550
554 3 -1.0 -10.3850 5.3650 2.3550
555 1 1.0 -10.7750 4.4800 2.4200
556 3 -1.0 -10.7750 4.4900 2.4200
557 1 1.0 -11.1410 5.9840 2.0510
558 3 -1.0 -11.1410 5.9940 2.0510
559 2 1.0 -0.9130 3.7870 8.1500
560 3 -1.0 -0.9130 3.7970 8.1500
561 1 1.0 -0.7790 2.8770 7.6980
562 3 -1.0 -0.7790 2.8870 7.6980
563 1 1.0 -0.0640 3.9400 8.5910
564 3 -1.0 -0.0640 3.9500 8.5910
565 2 1.0 10.5780 11.6650 11.2290
566 3 -1.0 10.5780 11.6750 11.2290
567 1 1.0 11.3960 11.4990 10.7340
568 3 -1.0 11.3960 11.5090 10.7340
569 1 1.0 9.9200 11.7750 10.5610
570 3 -1.0 9.9200 11.7850 10.5610
571 2 1.0 -2.2160 6.0600 4.4390
572 3 -1.0 -2.2160 6.0700 4.4390
573 1 1.0 -1.4240 6.1660 3.9220
574 3 -1.0 -1.4240 6.1760 3.9220
575 1 1.0 -2.0590 6.5840 5.2340
576 3 -1.0 -2.0590 6.5940 5.2340
577 2 1.0 -9.6310 7.6200 -1.1620
578 3 -1.0 -9.6310 7.6300 -1.1620
579 1 1.0 -9.9490 7.4250 -0.2990
580 3 -1.0 -9.9490 7.4350 -0.2990
581 1 1.0 -8.6530 7.7170 -1.0770
582 3 -1.0 -8.6530 7.7270 -1.0770
583 2 1.0 3.1580 3.2180 -10.5470
584 3 -1.0 3.1580 3.2280 -10.5470
585 1 1.0 3.2860 4.1230 -10.8400
586 3 -1.0 3.2860 4.1330 -10.8400
587 1 1.0 2.1750 3.2190 -10.4130
588 3 -1.0 2.1750 3.2290 -10.4130
589 2 1.0 -4.0710 -2.3990 -7.6780
590 3 -1.0 -4.0710 -2.3890 -7.6780
591 1 1.0 -4.6360 -1.6600 -8.0880
592 3 -1.0 -4.6360 -1.6500 -8.0880
593 1 1.0 -4.6820 -2.9890 -7.1800
594 3 -1.0 -4.6820 -2.9790 -7.1800
595 2 1.0 -0.4150 11.1210 7.4550
596 3 -1.0 -0.4150 11.1310 7.4550
597 1 1.0 0.4130 11.2050 7.9820
598 3 -1.0 0.4130 11.2150 7.9820
599 1 1.0 -1.1840 11.2660 8.0950
600 3 -1.0 -1.1840 11.2760 8.0950
601 2 1.0 9.3710 5.8850 -6.1250
602 3 -1.0 9.3710 5.8950 -6.1250
603 1 1.0 8.7310 5.1900 -5.7990
604 3 -1.0 8.7310 5.2000 -5.7990
605 1 1.0 10.1570 5.7710 -5.6210
606 3 -1.0 10.1570 5.7810 -5.6210
607 2 1.0 9.0520 2.4900 -7.7080
608 3 -1.0 9.0520 2.5000 -7.7080
609 1 1.0 8.6640 2.0250 -6.9910
610 3 -1.0 8.6640 2.0350 -6.9910
611 1 1.0 9.7910 3.0060 -7.2530
612 3 -1.0 9.7910 3.0160 -7.2530
613 2 1.0 -8.6800 -10.5610 -8.3070
614 3 -1.0 -8.6800 -10.5510 -8.3070
615 1 1.0 -8.9820 -10.7370 -9.2050
616 3 -1.0 -8.9820 -10.7270 -9.2050
617 1 1.0 -7.7820 -10.2630 -8.4670
618 3 -1.0 -7.7820 -10.2530 -8.4670
619 2 1.0 4.0960 -3.5950 -1.3720
620 3 -1.0 4.0960 -3.5850 -1.3720
621 1 1.0 4.0850 -2.6100 -1.2850
622 3 -1.0 4.0850 -2.6000 -1.2850
623 1 1.0 4.0770 -3.6520 -2.3790
624 3 -1.0 4.0770 -3.6420 -2.3790
625 2 1.0 -3.6220 10.8360 2.0740
626 3 -1.0 -3.6220 10.8460 2.0740
627 1 1.0 -2.8730 11.0850 1.4780
628 3 -1.0 -2.8730 11.0950 1.4780
629 1 1.0 -4.1940 11.6520 2.1120
630 3 -1.0 -4.1940 11.6620 2.1120
631 2 1.0 6.4790 -8.9110 -10.6220
632 3 -1.0 6.4790 -8.9010 -10.6220
633 1 1.0 5.5360 -8.7920 -10.4260
634 3 -1.0 5.5360 -8.7820 -10.4260
635 1 1.0 6.6020 -9.8600 -10.8030
636 3 -1.0 6.6020 -9.8500 -10.8030
637 2 1.0 3.5290 -6.0180 -3.4810
638 3 -1.0 3.5290 -6.0080 -3.4810
639 1 1.0 4.3980 -6.3680 -3.1880
640 3 -1.0 4.3980 -6.3580 -3.1880
641 1 1.0 3.2230 -6.6670 -4.1330
642 3 -1.0 3.2230 -6.6570 -4.1330
643 2 1.0 -7.4610 -9.3950 -3.7050
644 3 -1.0 -7.4610 -9.3850 -3.7050
645 1 1.0 -6.5400 -9.2980 -3.8770
646 3 -1.0 -6.5400 -9.2880 -3.8770
647 1 1.0 -7.5660 -10.3840 -3.6370
648 3 -1.0 -7.5660 -10.3740 -3.6370
649 2 1.0 8.0280 -4.9200 -2.9780
650 3 -1.0 8.0280 -4.9100 -2.9780
651 1 1.0 8.6750 -4.2850 -2.9180
652 3 -1.0 8.6750 -4.2750 -2.9180
653 1 1.0 7.3850 -4.4270 -3.4730
654 3 -1.0 7.3850 -4.4170 -3.4730
655 2 1.0 10.0100 -0.9720 6.4470
656 3 -1.0 10.0100 -0.9620 6.4470
657 1 1.0 10.7190 -0.9390 5.7010
658 3 -1.0 10.7190 -0.9290 5.7010
659 1 1.0 10.5900 -0.8600 7.2200
660 3 -1.0 10.5900 -0.8500 7.2200
661 2 1.0 6.3500 -5.0220 5.6150
662 3 -1.0 6.3500 -5.0120 5.6150
663 1 1.0 6.4150 -4.7090 4.7020
664 3 -1.0 6.4150 -4.6990 4.7020
665 1 1.0 5.3980 -4.8410 5.7840
666 3 -1.0 5.3980 -4.8310 5.7840
667 2 1.0 -3.1170 9.5810 -6.2400
668 3 -1.0 -3.1170 9.5910 -6.2400
669 1 1.0 -3.2950 10.2320 -5.5540
670 3 -1.0 -3.2950 10.2420 -5.5540
671 1 1.0 -2.6430 10.0080 -6.9230
672 3 -1.0 -2.6430 10.0180 -6.9230
673 2 1.0 7.3990 0.3640 -10.0200
674 3 -1.0 7.3990 0.3740 -10.0200
675 1 1.0 7.7150 -0.5010 -10.4020
676 3 -1.0 7.7150 -0.4910 -10.4020
677 1 1.0 7.0910 0.0590 -9.1540
678 3 -1.0 7.0910 0.0690 -9.1540
679 2 1.0 0.7930 1.3640 0.1680
680 3 -1.0 0.7930 1.3740 0.1680
681 1 1.0 0.7870 1.5480 -0.7770
682 3 -1.0 0.7870 1.5580 -0.7770
683 1 1.0 -0.0050 1.7940 0.3990
684 3 -1.0 -0.0050 1.8040 0.3990
685 2 1.0 -5.3330 -4.4530 -2.3540
686 3 -1.0 -5.3330 -4.4430 -2.3540
687 1 1.0 -5.8970 -5.0250 -1.7040
688 3 -1.0 -5.8970 -5.0150 -1.7040
689 1 1.0 -4.4420 -4.7080 -1.9540
690 3 -1.0 -4.4420 -4.6980 -1.9540
691 2 1.0 -11.8180 11.4030 9.3610
692 3 -1.0 -11.8180 11.4130 9.3610
693 1 1.0 -11.6990 11.5850 10.3460
694 3 -1.0 -11.6990 11.5950 10.3460
695 1 1.0 -10.9990 10.8670 9.2200
696 3 -1.0 -10.9990 10.8770 9.2200
697 2 1.0 -0.6530 4.0070 11.1480
698 3 -1.0 -0.6530 4.0170 11.1480
699 1 1.0 -0.2210 3.1260 11.0870
700 3 -1.0 -0.2210 3.1360 11.0870
701 1 1.0 -1.4140 3.9230 10.5810
702 3 -1.0 -1.4140 3.9330 10.5810
703 2 1.0 -1.8710 5.4850 -5.4500
704 3 -1.0 -1.8710 5.4950 -5.4500
705 1 1.0 -2.7690 5.4670 -5.0800
706 3 -1.0 -2.7690 5.4770 -5.0800
707 1 1.0 -1.8920 4.7020 -6.0150
708 3 -1.0 -1.8920 4.7120 -6.0150
709 2 1.0 10.4120 -4.3940 0.6650
710 3 -1.0 10.4120 -4.3840 0.6650
711 1 1.0 9.8520 -4.0200 1.3880
712 3 -1.0 9.8520 -4.0100 1.3880
713 1 1.0 9.9580 -5.2310 0.4930
714 3 -1.0 9.9580 -5.2210 0.4930
715 2 1.0 -7.3460 -6.2830 -6.9770
716 3 -1.0 -7.3460 -6.2730 -6.9770
717 1 1.0 -6.9410 -6.8740 -7.6050
718 3 -1.0 -6.9410 -6.8640 -7.6050
719 1 1.0 -6.5910 -6.2150 -6.3660
720 3 -1.0 -6.5910 -6.2050 -6.3660
721 2 1.0 0.3360 2.9050 -2.6500
722 3 -1.0 0.3360 2.9150 -2.6500
723 1 1.0 -0.1510 3.5880 -3.1170
724 3 -1.0 -0.1510 3.5980 -3.1170
725 1 1.0 -0.4320 2.3750 -2.2300
726 3 -1.0 -0.4320 2.3850 -2.2300
727 2 1.0 -6.5120 2.2550 1.2120
728 3 -1.0 -6.5120 2.2650 1.2120
729 1 1.0 -5.7210 2.1260 1.7090
730 3 -1.0 -5.7210 2.1360 1.7090
731 1 1.0 -7.1360 1.9910 1.8780
732 3 -1.0 -7.1360 2.0010 1.8780
733 2 1.0 -8.3140 -3.6470 -8.5990
734 3 -1.0 -8.3140 -3.6370 -8.5990
735 1 1.0 -7.5060 -4.0700 -8.9160
736 3 -1.0 -7.5060 -4.0600 -8.9160
737 1 1.0 -8.9590 -4.2730 -8.8030
738 3 -1.0 -8.9590 -4.2630 -8.8030
739 2 1.0 3.0050 2.5260 7.1330
740 3 -1.0 3.0050 2.5360 7.1330
741 1 1.0 3.7420 1.9410 7.2380
742 3 -1.0 3.7420 1.9510 7.2380
743 1 1.0 2.7460 2.4530 6.1880
744 3 -1.0 2.7460 2.4630 6.1880
745 2 1.0 3.4270 1.8990 1.4180
746 3 -1.0 3.4270 1.9090 1.4180
747 1 1.0 3.5980 2.7030 1.9150
748 3 -1.0 3.5980 2.7130 1.9150
749 1 1.0 2.5690 2.0320 0.9940
750 3 -1.0 2.5690 2.0420 0.9940
751 2 1.0 3.1170 4.3420 3.3200
752 3 -1.0 3.1170 4.3520 3.3200
753 1 1.0 2.1900 4.6580 3.2350
754 3 -1.0 2.1900 4.6680 3.2350
755 1 1.0 3.7250 5.0800 2.9500
756 3 -1.0 3.7250 5.0900 2.9500
757 2 1.0 1.2630 11.5130 -4.6740
758 3 -1.0 1.2630 11.5230 -4.6740
759 1 1.0 2.0830 11.9000 -4.3110
760 3 -1.0 2.0830 11.9100 -4.3110
761 1 1.0 1.6690 10.8030 -5.2610
762 3 -1.0 1.6690 10.8130 -5.2610
763 2 1.0 -1.9700 -0.5590 -8.5660
764 3 -1.0 -1.9700 -0.5490 -8.5660
765 1 1.0 -2.7260 -1.1730 -8.5780
766 3 -1.0 -2.7260 -1.1630 -8.5780
767 1 1.0 -1.4670 -0.6380 -9.3390
768 3 -1.0 -1.4670 -0.6280 -9.3390
769 2 1.0 -1.4500 -2.4560 -0.6850
770 3 -1.0 -1.4500 -2.4460 -0.6850
771 1 1.0 -1.9450 -1.6570 -0.6040
772 3 -1.0 -1.9450 -1.6470 -0.6040
773 1 1.0 -0.5400 -2.1540 -0.6630
774 3 -1.0 -0.5400 -2.1440 -0.6630
775 2 1.0 5.1960 6.0380 1.7770
776 3 -1.0 5.1960 6.0480 1.7770
777 1 1.0 5.4920 5.0850 1.7500
778 3 -1.0 5.4920 5.0950 1.7500
779 1 1.0 4.8680 6.0820 0.8550
780 3 -1.0 4.8680 6.0920 0.8550
781 2 1.0 -9.9950 5.7960 9.1220
782 3 -1.0 -9.9950 5.8060 9.1220
783 1 1.0 -9.2270 5.3250 9.5980
784 3 -1.0 -9.2270 5.3350 9.5980
785 1 1.0 -9.8270 6.7580 9.2650
786 3 -1.0 -9.8270 6.7680 9.2650
787 2 1.0 1.5530 3.2400 9.4350
788 3 -1.0 1.5530 3.2500 9.4350
789 1 1.0 2.1030 2.9590 8.7260
790 3 -1.0 2.1030 2.9690 8.7260
791 1 1.0 1.4220 2.4700 9.9790
792 3 -1.0 1.4220 2.4800 9.9790
793 2 1.0 -0.5440 -9.6500 7.5850
794 3 -1.0 -0.5440 -9.6400 7.5850
795 1 1.0 -1.2690 -9.0690 7.7300
796 3 -1.0 -1.2690 -9.0590 7.7300
797 1 1.0 -0.4540 -10.1380 8.4010
798 3 -1.0 -0.4540 -10.1280 8.4010
799 2 1.0 1.0680 -9.0860 -1.8510
800 3 -1.0 1.0680 -9.0760 -1.8510
801 1 1.0 0.8030 -9.5270 -2.7050
802 3 -1.0 0.8030 -9.5170 -2.7050
803 1 1.0 2.0100 -9.1510 -1.8880
804 3 -1.0 2.0100 -9.1410 -1.8880
805 2 1.0 -6.5500 -2.9330 -6.6630
806 3 -1.0 -6.5500 -2.9230 -6.6630
807 1 1.0 -7.2780 -3.1600 -7.2890
808 3 -1.0 -7.2780 -3.1500 -7.2890
809 1 1.0 -7.0610 -3.2300 -5.8830
810 3 -1.0 -7.0610 -3.2200 -5.8830
811 2 1.0 -8.7030 6.7710 5.3030
812 3 -1.0 -8.7030 6.7810 5.3030
813 1 1.0 -8.0870 7.2720 5.8250
814 3 -1.0 -8.0870 7.2820 5.8250
815 1 1.0 -8.3840 6.9350 4.4080
816 3 -1.0 -8.3840 6.9450 4.4080
817 2 1.0 -5.4030 3.9540 9.4630
818 3 -1.0 -5.4030 3.9640 9.4630
819 1 1.0 -4.8430 3.1600 9.2000
820 3 -1.0 -4.8430 3.1700 9.2000
821 1 1.0 -4.7950 4.4510 10.0210
822 3 -1.0 -4.7950 4.4610 10.0210
823 2 1.0 -10.5570 -8.0200 6.6270
824 3 -1.0 -10.5570 -8.0100 6.6270
825 1 1.0 -10.4640 -8.9500 6.2470
826 3 -1.0 -10.4640 -8.9400 6.2470
827 1 1.0 -11.4110 -7.7180 6.2560
828 3 -1.0 -11.4110 -7.7080 6.2560
829 2 1.0 -8.7520 10.8760 -8.2990
830 3 -1.0 -8.7520 10.8860 -8.2990
831 1 1.0 -9.3380 10.3340 -7.7520
832 3 -1.0 -9.3380 10.3440 -7.7520
833 1 1.0 -7.8940 10.4100 -8.2190
834 3 -1.0 -7.8940 10.4200 -8.2190
835 2 1.0 -3.0570 7.6070 -2.6070
836 3 -1.0 -3.0570 7.6170 -2.6070
837 1 1.0 -2.1100 7.6660 -2.8260
838 3 -1.0 -2.1100 7.6760 -2.8260
839 1 1.0 -3.4490 7.2020 -3.4140
840 3 -1.0 -3.4490 7.2120 -3.4140
841 2 1.0 -4.4660 11.3130 10.0100
842 3 -1.0 -4.4660 11.3230 10.0100
843 1 1.0 -4.6910 10.7770 10.7380
844 3 -1.0 -4.6910 10.7870 10.7380
845 1 1.0 -5.3030 11.4030 9.5320
846 3 -1.0 -5.3030 11.4130 9.5320
847 2 1.0 1.3400 1.5600 4.4770
848 3 -1.0 1.3400 1.5700 4.4770
849 1 1.0 1.4000 1.5680 3.5420
850 3 -1.0 1.4000 1.5780 3.5420
851 1 1.0 0.8520 2.4060 4.6330
852 3 -1.0 0.8520 2.4160 4.6330
853 2 1.0 -3.6560 -4.1550 8.4290
854 3 -1.0 -3.6560 -4.1450 8.4290
855 1 1.0 -3.5210 -3.7080 9.2360
856 3 -1.0 -3.5210 -3.6980 9.2360
857 1 1.0 -2.8980 -3.9410 7.9000
858 3 -1.0 -2.8980 -3.9310 7.9000
859 2 1.0 9.8920 -2.5100 -9.0460
860 3 -1.0 9.8920 -2.5000 -9.0460
861 1 1.0 10.6620 -3.0350 -8.9930
862 3 -1.0 10.6620 -3.0250 -8.9930
863 1 1.0 9.2790 -3.0900 -9.4420
864 3 -1.0 9.2790 -3.0800 -9.4420
865 2 1.0 -5.0990 9.5570 -2.6740
866 3 -1.0 -5.0990 9.5670 -2.6740
867 1 1.0 -4.5900 8.7440 -2.6160
868 3 -1.0 -4.5900 8.7540 -2.6160
869 1 1.0 -4.5260 10.0770 -3.2410
870 3 -1.0 -4.5260 10.0870 -3.2410
871 2 1.0 4.2610 9.7890 10.1520
872 3 -1.0 4.2610 9.7990 10.1520
873 1 1.0 4.6840 8.8730 9.8780
874 3 -1.0 4.6840 8.8830 9.8780
875 1 1.0 4.7880 10.0100 10.8730
876 3 -1.0 4.7880 10.0200 10.8730
877 2 1.0 2.4030 -4.1850 3.2120
878 3 -1.0 2.4030 -4.1750 3.2120
879 1 1.0 1.5320 -3.7940 2.9110
880 3 -1.0 1.5320 -3.7840 2.9110
881 1 1.0 2.8850 -4.3190 2.3730
882 3 -1.0 2.8850 -4.3090 2.3730
883 2 1.0 -5.1430 -0.8620 -5.1710
884 3 -1.0 -5.1430 -0.8520 -5.1710
885 1 1.0 -5.8930 -0.2500 -5.2000
886 3 -1.0 -5.8930 -0.2400 -5.2000
887 1 1.0 -5.5200 -1.6130 -5.6470
888 3 -1.0 -5.5200 -1.6030 -5.6470
889 2 1.0 -1.6910 9.5000 -0.5190
890 3 -1.0 -1.6910 9.5100 -0.5190
891 1 1.0 -0.9860 8.9280 -0.8150