ITEM: TIMESTEP
20
ITEM: NUMBER OF ATOMS
120
ITEM: BOX BOUNDS pp pp pp
-2.5000000000000000e+02 2.5000000000000000e+02
-2.5000000000000000e+02 2.5000000000000000e+02
-2.5000000000000000e+02 2.5000000000000000e+02
ITEM: ATOMS type q x y z 
2 1 0.529492 -1.32342 -2.30163 
3 -1 0.449788 -1.34547 -2.27534 
1 1 0.572324 -0.42687 -2.67001 
3 -1 0.56867 -0.820614 -2.4941 
1 1 1.20082 -1.32072 -1.58219 
3 -1 0.879229 -1.30333 -1.9597 
2 1 1.15048 -4.32689 2.04923 
3 -1 1.11278 -4.30508 2.07308 
1 1 1.57542 -5.00737 2.57879 
3 -1 1.41862 -4.74513 2.36274 
1 1 1.60945 -4.34267 1.16206 
3 -1 1.38523 -4.3561 1.65666 
2 1 0.438106 -4.20371 -2.32781 
3 -1 0.473624 -4.1819 -2.25725 
1 1 0.447937 -3.28115 -2.62549 
3 -1 0.418241 -3.68828 -2.49557 
1 1 -0.459492 -4.33566 -1.97697 
3 -1 -0.0683869 -4.25655 -2.15147 
2 1 2.35782 -1.30472 -0.255414 
3 -1 2.31228 -1.32071 -0.314679 
1 1 2.72482 -0.406583 -0.27649 
3 -1 2.55277 -0.800254 -0.248328 
1 1 1.86657 -1.35448 0.595516 
3 -1 2.13356 -1.30981 0.184126 
2 1 0.967421 -1.54027 2.09782 
3 -1 1.01429 -1.49732 2.04102 
1 1 0.00381124 -1.51162 1.9013 
3 -1 0.480559 -1.54315 2.02167 
1 1 1.13623 -2.47065 2.3377 
3 -1 1.03988 -2.0475 2.22367 
2 1 -1.62142 -4.23622 1.51672 
3 -1 -1.62726 -4.22367 1.40099 
1 1 -0.682104 -4.36825 1.74583 
3 -1 -1.1263 -4.28602 1.66414 
1 1 -1.80549 -3.31699 1.76962 
3 -1 -1.7018 -3.73889 1.67221 
2 1 2.31463 -4.17461 -0.30761 
3 -1 2.24312 -4.16099 -0.187265 
1 1 1.67572 -4.27012 -1.04859 
3 -1 2.01203 -4.2023 -0.695923 
1 1 2.63455 -3.26319 -0.392731 
3 -1 2.48933 -3.67211 -0.379196 
2 1 -1.70531 -1.39793 1.52173 
3 -1 -1.6311 -1.42929 1.54639 
1 1 -1.80917 -1.40885 0.542623 
3 -1 -1.781 -1.38367 1.03851 
1 1 -1.98592 -0.508523 1.79228 
3 -1 -1.86333 -0.903968 1.64979 
2 1 -1.95883 -1.53957 -1.1956 
3 -1 -1.96469 -1.49808 -1.117 
1 1 -1.06394 -1.49626 -1.60415 
3 -1 -1.52532 -1.53401 -1.41981 
1 1 -2.24148 -2.46548 -1.31539 
3 -1 -2.09416 -2.0448 -1.26779 
2 1 -2.1476 -4.31869 -1.09604 
3 -1 -2.14299 -4.29156 -1.1285 
1 1 -2.81586 -4.98319 -1.28489 
3 -1 -2.55404 -4.72745 -1.1965 
1 1 -1.97073 -4.37676 -0.120779 
3 -1 -2.0905 -4.37039 -0.63182 
2 1 0.474574 4.36989 -2.26502 
3 -1 0.447122 4.36203 -2.27508 
1 1 0.643349 5.0586 -2.91464 
3 -1 0.593458 4.78823 -2.64239 
1 1 1.15347 4.48647 -1.56401 
3 -1 0.831519 4.45344 -1.93412 
2 1 1.0474 1.25383 2.07663 
3 -1 0.966502 1.2942 2.07209 
1 1 1.20148 0.347672 2.39621 
3 -1 1.14169 0.760663 2.23037 
1 1 1.50867 1.29474 1.20877 
3 -1 1.29978 1.25916 1.6536 
2 1 0.362518 1.51678 -2.28082 
3 -1 0.421896 1.5015 -2.23459 
1 1 -0.516017 1.4317 -1.84398 
3 -1 -0.0840367 1.49485 -2.08537 
1 1 0.400679 2.44141 -2.5756 
3 -1 0.368129 2.03938 -2.43675 
2 1 2.25862 4.37559 -0.178126 
3 -1 2.23784 4.37643 -0.242075 
1 1 1.75225 4.32193 0.680411 
3 -1 2.05733 4.36926 0.233228 
1 1 2.95318 5.02389 -0.0276109 
3 -1 2.67467 4.76418 -0.0763086 
2 1 0.908411 4.07582 2.06793 
3 -1 0.959491 4.07429 1.94394 
1 1 -0.0538465 4.21516 1.98793 
3 -1 0.393948 4.12753 2.04904 
1 1 1.00434 3.15092 2.35285 
3 -1 0.931393 3.58741 2.23223 
2 1 -1.65303 1.41017 1.65281 
3 -1 -1.67392 1.37786 1.57685 
1 1 -0.684699 1.37363 1.82298 
3 -1 -1.17345 1.41172 1.76064 
1 1 -1.90706 2.32705 1.8572 
3 -1 -1.7723 1.91614 1.7699 
2 1 2.29903 1.51998 -0.344995 
3 -1 2.27341 1.49339 -0.272694 
1 1 2.58431 2.44877 -0.3325 
3 -1 2.44486 2.04036 -0.354462 
1 1 1.61172 1.49446 -1.0496 
3 -1 1.97235 1.52573 -0.710653 
2 1 -1.86709 4.21919 1.62364 
3 -1 -1.83713 4.20079 1.65339 
1 1 -2.47862 4.86612 1.98699 
3 -1 -2.2413 4.61075 1.82717 
1 1 -1.98957 4.24486 0.638982 
3 -1 -1.95262 4.25229 1.16163 
2 1 -2.09772 4.06192 -1.02691 
3 -1 -2.06599 4.05491 -0.915906 
1 1 -2.2914 3.12926 -1.22351 
3 -1 -2.18465 3.56922 -1.15611 
1 1 -1.26372 4.24457 -1.49256 
3 -1 -1.64923 4.14137 -1.30247 
2 1 -2.05472 1.24143 -1.04292 
3 -1 -1.9859 1.28565 -1.08744 
1 1 -2.34413 0.332986 -1.23986 
3 -1 -2.20849 0.74694 -1.1278 
1 1 -1.92032 1.25485 -0.0676851 
3 -1 -2.012 1.23176 -0.55525 
ITEM: TIMESTEP
30
ITEM: NUMBER OF ATOMS
120
ITEM: BOX BOUNDS pp pp pp
-2.5000000000000000e+02 2.5000000000000000e+02
-2.5000000000000000e+02 2.5000000000000000e+02
-2.5000000000000000e+02 2.5000000000000000e+02
ITEM: ATOMS type q x y z 
2 1 0.529327 -1.3239 -2.3025 
3 -1 0.447063 -1.34881 -2.2759 
1 1 0.572965 -0.418687 -2.67219 
3 -1 0.568748 -0.816215 -2.49626 
1 1 1.20356 -1.32149 -1.57675 
3 -1 0.879801 -1.30461 -1.95728 
2 1 1.14984 -4.32659 2.05035 
3 -1 1.11098 -4.30259 2.07367 
1 1 1.57657 -5.00709 2.57571 
3 -1 1.41891 -4.74392 2.3596 
1 1 1.6086 -4.34824 1.16583 
3 -1 1.38401 -4.36089 1.66218 
2 1 0.438188 -4.20385 -2.32809 
3 -1 0.4756 -4.18323 -2.25605 
1 1 0.449109 -3.27488 -2.62761 
3 -1 0.419369 -3.68497 -2.49734 
1 1 -0.463872 -4.33747 -1.97335 
3 -1 -0.0714334 -4.25866 -2.14888 
2 1 2.35857 -1.3052 -0.255817 
3 -1 2.31223 -1.3232 -0.316987 
1 1 2.72766 -0.398726 -0.276093 
3 -1 2.55475 -0.795988 -0.24844 
1 1 1.86275 -1.35391 0.598097 
3 -1 2.13154 -1.3101 0.184826 
2 1 0.968067 -1.53956 2.09851 
3 -1 1.01663 -1.49253 2.04159 
1 1 -0.000757333 -1.51241 1.89816 
3 -1 0.479506 -1.54289 2.01997 
1 1 1.13674 -2.47914 2.34027 
3 -1 1.04077 -2.05223 2.22536 
2 1 -1.62186 -4.23667 1.5175 
3 -1 -1.62921 -4.22636 1.39981 
1 1 -0.672554 -4.36949 1.746 
3 -1 -1.11918 -4.28842 1.66431 
1 1 -1.8076 -3.30698 1.77243 
3 -1 -1.70441 -3.73277 1.67419 
2 1 2.31568 -4.17478 -0.308129 
3 -1 2.24494 -4.16335 -0.185954 
1 1 1.66856 -4.2735 -1.05557 
3 -1 2.00724 -4.20591 -0.700035 
1 1 2.63803 -3.25339 -0.393487 
3 -1 2.49349 -3.66443 -0.378777 
2 1 -1.70564 -1.39862 1.52257 
3 -1 -1.6295 -1.43379 1.5483 
1 1 -1.80794 -1.40728 0.538232 
3 -1 -1.7799 -1.38338 1.03692 
1 1 -1.98871 -0.499069 1.79389 
3 -1 -1.86496 -0.899514 1.65109 
2 1 -1.95985 -1.53877 -1.19575 
3 -1 -1.96725 -1.49287 -1.11568 
1 1 -1.05718 -1.49818 -1.60493 
3 -1 -1.52276 -1.53453 -1.41934 
1 1 -2.24322 -2.47469 -1.31784 
3 -1 -2.09582 -2.04985 -1.26902 
2 1 -2.14763 -4.31833 -1.0973 
3 -1 -2.14246 -4.28872 -1.13088 
1 1 -2.81507 -4.98331 -1.28151 
3 -1 -2.55298 -4.72722 -1.19422 
1 1 -1.97136 -4.38183 -0.119916 
3 -1 -2.09213 -4.37478 -0.634478 
2 1 0.473764 4.36939 -2.26565 
3 -1 0.444332 4.36006 -2.27643 
1 1 0.644973 5.05887 -2.91275 
3 -1 0.594254 4.78817 -2.64154 
1 1 1.15753 4.48863 -1.55929 
3 -1 0.832676 4.45503 -1.93318 
2 1 1.04741 1.25459 2.07752 
3 -1 0.964391 1.29942 2.07351 
1 1 1.20347 0.336925 2.39865 
3 -1 1.14249 0.755522 2.23227 
1 1 1.50989 1.29277 1.20283 
3 -1 1.3 1.25845 1.65056 
2 1 0.363068 1.51636 -2.28166 
3 -1 0.424394 1.49864 -2.23481 
1 1 -0.518674 1.43174 -1.84036 
3 -1 -0.0839372 1.49409 -2.08389 
1 1 0.399846 2.44908 -2.578 
3 -1 0.368285 2.04396 -2.43852 
2 1 2.25947 4.37539 -0.179074 
3 -1 2.23697 4.37553 -0.244726 
1 1 1.75321 4.32621 0.678509 
3 -1 2.06064 4.37264 0.229931 
1 1 2.9527 5.02378 -0.0246833 
3 -1 2.67382 4.76323 -0.0745759 
2 1 0.908554 4.07636 2.06905 
3 -1 0.96164 4.07743 1.94386 
1 1 -0.0644784 4.21636 1.98588 
3 -1 0.385897 4.1302 2.04736 
1 1 1.00522 3.13921 2.35651 
3 -1 0.933311 3.58 2.23523 
2 1 -1.65392 1.40941 1.6532 
3 -1 -1.67619 1.37327 1.57586 
1 1 -0.679622 1.37464 1.82208 
3 -1 -1.17192 1.41137 1.75962 
1 1 -1.90825 2.33553 1.85985 
3 -1 -1.77354 1.9206 1.77154 
2 1 2.29988 1.51956 -0.344899 
3 -1 2.27465 1.49034 -0.270979 
1 1 2.58708 2.45531 -0.332561 
3 -1 2.44739 2.04437 -0.354261 
1 1 1.6069 1.49315 -1.05161 
3 -1 1.97042 1.52394 -0.710647 
2 1 -1.86678 4.21874 1.62485 
3 -1 -1.83496 4.19816 1.65555 
1 1 -2.4795 4.86692 1.98363 
3 -1 -2.24157 4.61077 1.82462 
1 1 -1.99183 4.25012 0.638132 
3 -1 -1.95452 4.25656 1.16478 
2 1 -2.09825 4.06248 -1.02756 
3 -1 -2.06764 4.05801 -0.914004 
1 1 -2.29369 3.11847 -1.22615 
3 -1 -2.18726 3.56303 -1.15759 
1 1 -1.25439 4.24617 -1.4958 
3 -1 -1.64202 4.14418 -1.30501 
2 1 -2.05533 1.24218 -1.04362 
3 -1 -1.98531 1.29087 -1.08973 
1 1 -2.34729 0.322591 -1.24125 
3 -1 -2.21038 0.742123 -1.12919 
1 1 -1.91781 1.25307 -0.0624921 
3 -1 -2.01038 1.23137 -0.553024 
ITEM: TIMESTEP
40
ITEM: NUMBER OF ATOMS
120
ITEM: BOX BOUNDS pp pp pp
-2.5000000000000000e+02 2.5000000000000000e+02
-2.5000000000000000e+02 2.5000000000000000e+02
-2.5000000000000000e+02 2.5000000000000000e+02
ITEM: ATOMS type q x y z 
2 1 0.529473 -1.32409 -2.30447 
3 -1 0.446518 -1.35053 -2.27718 
1 1 0.573594 -0.414678 -2.67042 
3 -1 0.569253 -0.813928 -2.49598 
1 1 1.20214 -1.32325 -1.57266 
3 -1 0.878259 -1.30592 -1.95492 
2 1 1.14823 -4.32583 2.05311 
3 -1 1.10859 -4.29983 2.07575 
1 1 1.57991 -5.00907 2.57256 
3 -1 1.42099 -4.74508 2.35739 
1 1 1.60902 -4.3593 1.1669 
3 -1 1.38349 -4.36896 1.6648 
2 1 0.437763 -4.20353 -2.32875 
3 -1 0.475535 -4.18363 -2.25598 
1 1 0.45118 -3.27234 -2.62803 
3 -1 0.420724 -3.68346 -2.49787 
1 1 -0.463589 -4.33939 -1.96931 
3 -1 -0.0716461 -4.26049 -2.14569 
2 1 2.36048 -1.3054 -0.256315 
3 -1 2.31354 -1.32433 -0.317977 
1 1 2.72785 -0.395198 -0.275121 
3 -1 2.55534 -0.793877 -0.247649 
1 1 1.85819 -1.35258 0.596755 
3 -1 2.12852 -1.30949 0.183603 
2 1 0.969147 -1.53886 2.10033 
3 -1 1.01799 -1.48938 2.04335 
1 1 -0.00143757 -1.5141 1.89295 
3 -1 0.480184 -1.54372 2.01666 
1 1 1.13529 -2.48209 2.34186 
3 -1 1.04002 -2.05399 2.22689 
2 1 -1.62207 -4.23663 1.51992 
3 -1 -1.62964 -4.22796 1.40142 
1 1 -0.669229 -4.36932 1.74196 
3 -1 -1.11624 -4.28903 1.66227 
1 1 -1.80799 -3.30342 1.77297 
3 -1 -1.70479 -3.73075 1.67566 
2 1 2.31779 -4.17411 -0.31023 
3 -1 2.24745 -4.16443 -0.18784 
1 1 1.66484 -4.27829 -1.05737 
3 -1 2.00483 -4.20915 -0.701703 
1 1 2.63799 -3.25025 -0.393936 
3 -1 2.49525 -3.66157 -0.379567 
2 1 -1.7069 -1.39915 1.52434 
3 -1 -1.62976 -1.43643 1.54988 
1 1 -1.8041 -1.40432 0.536779 
3 -1 -1.77723 -1.38148 1.03644 
1 1 -1.98906 -0.494246 1.79269 
3 -1 -1.86565 -0.897041 1.65053 
2 1 -1.96189 -1.53796 -1.19663 
3 -1 -1.96963 -1.48923 -1.116 
1 1 -1.05275 -1.50231 -1.60148 
3 -1 -1.52095 -1.5371 -1.41658 
1 1 -2.2424 -2.47825 -1.32063 
3 -1 -2.09582 -2.05197 -1.27122 
2 1 -2.14766 -4.31752 -1.1 
3 -1 -2.14154 -4.28621 -1.13412 
1 1 -2.81512 -4.985 -1.2761 
3 -1 -2.5529 -4.72838 -1.19077 
1 1 -1.97158 -4.39161 -0.118987 
3 -1 -2.09305 -4.38194 -0.635996 
2 1 0.472421 4.36831 -2.26655 
3 -1 0.442083 4.35797 -2.27716 
1 1 0.648202 5.06 -2.90963 
3 -1 0.596165 4.78875 -2.63967 
1 1 1.15793 4.49121 -1.55675 
3 -1 0.831949 4.45691 -1.93244 
2 1 1.04805 1.25515 2.07942 
3 -1 0.964131 1.3026 2.07499 
1 1 1.20394 0.331349 2.39748 
3 -1 1.14302 0.752642 2.23186 
1 1 1.50704 1.28856 1.19948 
3 -1 1.29798 1.25559 1.64862 
2 1 0.363939 1.51627 -2.28372 
3 -1 0.425783 1.49702 -2.23627 
1 1 -0.517691 1.43215 -1.83563 
3 -1 -0.0822629 1.49407 -2.08115 
1 1 0.397588 2.45214 -2.57867 
3 -1 0.366996 2.04597 -2.43957 
2 1 2.2616 4.37496 -0.181364 
3 -1 2.23815 4.37443 -0.247823 
1 1 1.75164 4.3344 0.678214 
3 -1 2.06146 4.37845 0.228285 
1 1 2.9531 5.02421 -0.0189854 
3 -1 2.67451 4.7635 -0.0712904 
2 1 0.907755 4.07639 2.07196 
3 -1 0.96108 4.07917 1.94615 
1 1 -0.0672914 4.21581 1.98299 
3 -1 0.38298 4.13062 2.04597 
1 1 1.00486 3.13482 2.35722 
3 -1 0.932834 3.57726 2.23711 
2 1 -1.65571 1.40861 1.65451 
3 -1 -1.67817 1.37003 1.57671 
1 1 -0.677341 1.3767 1.81828 
3 -1 -1.17136 1.41235 1.75688 
1 1 -1.90691 2.33867 1.86194 
3 -1 -1.77303 1.92232 1.77352 
2 1 2.3018 1.51931 -0.345072 
3 -1 2.27646 1.48881 -0.270876 
1 1 2.58883 2.45691 -0.333146 
3 -1 2.44956 2.04565 -0.354759 
1 1 1.60242 1.49104 -1.04978 
3 -1 1.96795 1.52194 -0.708719 
2 1 -1.86623 4.2178 1.62742 
3 -1 -1.83302 4.19535 1.65852 
1 1 -2.48127 4.86876 1.97818 
3 -1 -2.24287 4.61202 1.82102 
1 1 -1.99525 4.26023 0.636944 
3 -1 -1.95697 4.26388 1.16642 
2 1 -2.09873 4.06269 -1.02993 
3 -1 -2.06862 4.0601 -0.915311 
1 1 -2.29403 3.1145 -1.22729 
3 -1 -2.18781 3.56089 -1.15939 
1 1 -1.24984 4.24585 -1.49376 
3 -1 -1.63842 4.14485 -1.30458 
2 1 -2.0571 1.24271 -1.04483 
3 -1 -1.98642 1.29387 -1.09099 
1 1 -2.34785 0.317324 -1.24075 
3 -1 -2.2112 0.739408 -1.12903 
1 1 -1.91348 1.24956 -0.0616116 
3 -1 -2.00757 1.22907 -0.55277 
ITEM: TIMESTEP
50
ITEM: NUMBER OF ATOMS
120
ITEM: BOX BOUNDS pp pp pp
-2.5000000000000000e+02 2.5000000000000000e+02
-2.5000000000000000e+02 2.5000000000000000e+02
-2.5000000000000000e+02 2.5000000000000000e+02
ITEM: ATOMS type q x y z 
2 1 0.530197 -1.3237 -2.30729 
3 -1 0.451556 -1.34789 -2.27911 
1 1 0.573735 -0.419688 -2.66287 
3 -1 0.570144 -0.817183 -2.49121 
1 1 1.19299 -1.32594 -1.57508 
3 -1 0.873199 -1.30663 -1.95504 
2 1 1.14619 -4.32502 2.05711 
3 -1 1.10777 -4.29906 2.0785 
1 1 1.58192 -5.01105 2.57197 
3 -1 1.42214 -4.74674 2.35808 
1 1 1.60724 -4.37121 1.16632 
3 -1 1.38243 -4.37683 1.66314 
2 1 0.43677 -4.20261 -2.32979 
3 -1 0.471384 -4.18181 -2.25861 
1 1 0.452776 -3.27737 -2.62508 
3 -1 0.421132 -3.68594 -2.49565 
1 1 -0.456423 -4.33955 -1.96681 
3 -1 -0.0672241 -4.26009 -2.14336 
2 1 2.36347 -1.30495 -0.256624 
3 -1 2.31679 -1.32301 -0.31449 
1 1 2.72354 -0.401288 -0.274117 
3 -1 2.55302 -0.797646 -0.246789 
1 1 1.85592 -1.35119 0.587854 
3 -1 2.12648 -1.307 0.178589 
2 1 0.97029 -1.53857 2.1032 
3 -1 1.01577 -1.49193 2.04658 
1 1 0.0070007 -1.51576 1.88763 
3 -1 0.484491 -1.54551 2.01279 
1 1 1.1321 -2.47361 2.34094 
3 -1 1.0375 -2.04888 2.22708 
2 1 -1.62188 -4.23587 1.52401 
3 -1 -1.62667 -4.22642 1.40874 
1 1 -0.676637 -4.36654 1.73363 
3 -1 -1.12082 -4.28605 1.65793 
1 1 -1.80506 -3.31189 1.76959 
3 -1 -1.70162 -3.73574 1.67515 
2 1 2.32066 -4.17258 -0.314069 
3 -1 2.24988 -4.16254 -0.196086 
1 1 1.67066 -4.28163 -1.04859 
3 -1 2.00831 -4.20957 -0.698036 
1 1 2.63215 -3.25735 -0.394769 
3 -1 2.49149 -3.66714 -0.382628 
2 1 -1.7092 -1.39898 1.52671 
3 -1 -1.63447 -1.43348 1.54918 
1 1 -1.79767 -1.40168 0.543196 
3 -1 -1.77305 -1.37832 1.03965 
1 1 -1.9844 -0.501162 1.78811 
3 -1 -1.86344 -0.900807 1.64742 
2 1 -1.96451 -1.53765 -1.19849 
3 -1 -1.96962 -1.4917 -1.1206 
1 1 -1.05738 -1.50686 -1.59145 
3 -1 -1.5228 -1.54108 -1.41074 
1 1 -2.23865 -2.46911 -1.32162 
3 -1 -2.09338 -2.04656 -1.27308 
2 1 -2.14776 -4.3166 -1.10336 
3 -1 -2.14092 -4.28633 -1.13537 
1 1 -2.81573 -4.9868 -1.27283 
3 -1 -2.55301 -4.72923 -1.18884 
1 1 -1.96996 -4.40142 -0.124153 
3 -1 -2.09151 -4.38845 -0.637699 
2 1 0.471009 4.36683 -2.26733 
3 -1 0.442857 4.35721 -2.2761 
1 1 0.651432 5.06165 -2.9069 
3 -1 0.598315 4.78896 -2.63672 
1 1 1.14925 4.4914 -1.56076 
3 -1 0.826948 4.45686 -1.93301 
2 1 1.04959 1.25488 2.08207 
3 -1 0.968842 1.29902 2.07552 
1 1 1.20045 0.339588 2.39123 
3 -1 1.14198 0.757047 2.22764 
1 1 1.49786 1.28401 1.2039 
3 -1 1.29248 1.2513 1.65082 
2 1 0.364798 1.5168 -2.28687 
3 -1 0.423122 1.49878 -2.23962 
1 1 -0.508997 1.43259 -1.83284 
3 -1 -0.0776144 1.49543 -2.07858 
1 1 0.394611 2.44561 -2.57632 
3 -1 0.364627 2.04168 -2.43869 
2 1 2.26489 4.37454 -0.184397 
3 -1 2.24246 4.37381 -0.248067 
1 1 1.74786 4.34346 0.675358 
3 -1 2.05808 4.38423 0.227794 
1 1 2.9545 5.02378 -0.01384 
3 -1 2.67649 4.7638 -0.0686954 
2 1 0.90581 4.07554 2.07661 
3 -1 0.954866 4.07713 1.95279 
1 1 -0.0568814 4.21253 1.98036 
3 -1 0.389333 4.12694 2.04572 
1 1 1.00255 3.14476 2.35258 
3 -1 0.929232 3.58326 2.23576 
2 1 -1.65802 1.40819 1.65685 
3 -1 -1.6776 1.37186 1.58137 
1 1 -0.683383 1.37855 1.81132 
3 -1 -1.17412 1.41456 1.75247 
1 1 -1.90287 2.33046 1.86148 
3 -1 -1.77039 1.91746 1.77427 
2 1 2.30454 1.51939 -0.345706 
3 -1 2.27836 1.49098 -0.274861 
1 1 2.58777 2.45004 -0.334532 
3 -1 2.44932 2.0411 -0.356403 
1 1 1.60301 1.48936 -1.04088 
3 -1 1.96701 1.52113 -0.703774 
2 1 -1.86583 4.21673 1.6306 
3 -1 -1.8334 4.19466 1.65943 
1 1 -2.48194 4.87001 1.97499 
3 -1 -2.24307 4.61263 1.81888 
1 1 -1.99576 4.27039 0.64141 
3 -1 -1.9574 4.27081 1.1674 
2 1 -2.09896 4.0622 -1.03413 
3 -1 -2.06755 4.05853 -0.923566 
1 1 -2.29057 3.12448 -1.22524 
3 -1 -2.18447 3.56643 -1.16022 
1 1 -1.25463 4.24237 -1.48467 
3 -1 -1.64203 4.14131 -1.29968 
2 1 -2.06009 1.24242 -1.0462 
3 -1 -1.99075 1.28989 -1.08875 
1 1 -2.34302 0.325823 -1.23799 
3 -1 -2.20897 0.743717 -1.12668 
1 1 -1.90871 1.24605 -0.0705455 
3 -1 -2.00439 1.22529 -0.5576 
ITEM: TIMESTEP
60
ITEM: NUMBER OF ATOMS
120
ITEM: BOX BOUNDS pp pp pp
-2.5000000000000000e+02 2.5000000000000000e+02
-2.5000000000000000e+02 2.5000000000000000e+02
-2.5000000000000000e+02 2.5000000000000000e+02
ITEM: ATOMS type q x y z 
2 1 0.53093 -1.32382 -2.31091 
3 -1 0.455418 -1.34799 -2.28155 
1 1 0.574055 -0.416473 -2.65783 
3 -1 0.570875 -0.815335 -2.48872 
1 1 1.18529 -1.32952 -1.57603 
3 -1 0.86892 -1.30883 -1.95406 
2 1 1.14437 -4.32457 2.06172 
3 -1 1.108 -4.29859 2.0812 
1 1 1.57873 -5.00956 2.57503 
3 -1 1.41948 -4.74464 2.35956 
1 1 1.59722 -4.37982 1.17231 
3 -1 1.37514 -4.38216 1.66711 
2 1 0.436044 -4.20197 -2.33115 
3 -1 0.468841 -4.1811 -2.26114 
1 1 0.452795 -3.27629 -2.6235 
3 -1 0.421011 -3.6843 -2.49492 
1 1 -0.454811 -4.33852 -1.96221 
3 -1 -0.067701 -4.2597 -2.13927 
2 1 2.36723 -1.30487 -0.257174 
3 -1 2.32123 -1.32356 -0.312424 
1 1 2.7227 -0.400133 -0.274003 
3 -1 2.55309 -0.796786 -0.246197 
1 1 1.85237 -1.35082 0.579856 
3 -1 2.12319 -1.30705 0.173812 
2 1 0.971812 -1.53766 2.10684 
3 -1 1.01441 -1.49157 2.05113 
1 1 0.0139581 -1.51616 1.8812 
3 -1 0.488416 -1.54482 2.0083 
1 1 1.13195 -2.47238 2.34262 
3 -1 1.03718 -2.04832 2.22907 
2 1 -1.62233 -4.23565 1.52892 
3 -1 -1.62536 -4.22624 1.4166 
1 1 -0.673727 -4.36378 1.7272 
3 -1 -1.11646 -4.28509 1.65489 
1 1 -1.80334 -3.31021 1.76905 
3 -1 -1.70115 -3.73296 1.67661 
2 1 2.32455 -4.17165 -0.318412 
3 -1 2.25345 -4.16276 -0.204749 
1 1 1.67329 -4.28451 -1.04578 
3 -1 2.00817 -4.21174 -0.699422 
1 1 2.62855 -3.25149 -0.398945 
3 -1 2.49089 -3.66225 -0.386805 
2 1 -1.71205 -1.39923 1.52973 
3 -1 -1.63913 -1.43325 1.54987 
1 1 -1.79058 -1.40084 0.548197 
3 -1 -1.76799 -1.37786 1.04181 
1 1 -1.98141 -0.500734 1.7879 
3 -1 -1.86235 -0.900467 1.64761 
2 1 -1.96786 -1.53681 -1.20083 
3 -1 -1.9713 -1.49153 -1.1257 
1 1 -1.05957 -1.5095 -1.58107 
3 -1 -1.52343 -1.54201 -1.40425 
1 1 -2.24006 -2.46695 -1.32264 
3 -1 -2.09458 -2.04563 -1.27477 
2 1 -2.14812 -4.31595 -1.10709 
3 -1 -2.14137 -4.28599 -1.13642 
1 1 -2.81552 -4.98627 -1.27492 
3 -1 -2.55171 -4.72783 -1.18996 
1 1 -1.96503 -4.40772 -0.135906 
3 -1 -2.08766 -4.39232 -0.645266 
2 1 0.469145 4.36505 -2.26853 
3 -1 0.44247 4.3553 -2.27585 
1 1 0.653023 5.06257 -2.90509 
3 -1 0.599125 4.78799 -2.63446 
1 1 1.14054 4.48927 -1.56157 
3 -1 0.821216 4.455 -1.93238 
2 1 1.05144 1.25498 2.0855 
3 -1 0.973035 1.29855 2.07745 
1 1 1.19648 0.340359 2.38987 
3 -1 1.14014 0.757232 2.22745 
1 1 1.48925 1.28145 1.20481 
3 -1 1.28722 1.24952 1.65027 
2 1 0.365977 1.51698 -2.29084 
3 -1 0.421312 1.49839 -2.2441 
1 1 -0.500308 1.43183 -1.82944 
3 -1 -0.0721617 1.49458 -2.07582 
1 1 0.392469 2.44634 -2.57718 
3 -1 0.363272 2.04233 -2.43987 
2 1 2.26905 4.37429 -0.187508 
3 -1 2.24664 4.37264 -0.247501 
1 1 1.74526 4.3511 0.66241 
3 -1 2.05632 4.38889 0.219659 
1 1 2.95749 5.02167 -0.0119826 
3 -1 2.67824 4.76168 -0.0681158 
2 1 0.904101 4.07529 2.08255 
3 -1 0.949976 4.07666 1.96102 
1 1 -0.0581284 4.20995 1.97677 
3 -1 0.385374 4.12626 2.04393 
1 1 1.00105 3.14344 2.3512 
3 -1 0.928064 3.58052 2.23746 
2 1 -1.661 1.40712 1.65979 
3 -1 -1.67835 1.37102 1.58655 
1 1 -0.687994 1.37872 1.804 
3 -1 -1.17655 1.41377 1.74753 
1 1 -1.90288 2.32933 1.86239 
3 -1 -1.77059 1.91686 1.77587 
2 1 2.30813 1.51879 -0.346347 
3 -1 2.28138 1.49021 -0.278506 
1 1 2.58878 2.45074 -0.336409 
3 -1 2.45047 2.04142 -0.358411 
1 1 1.60291 1.48841 -1.03263 
3 -1 1.96583 1.51999 -0.698968 
2 1 -1.8658 4.2158 1.63404 
3 -1 -1.8342 4.19365 1.66025 
1 1 -2.48059 4.86998 1.97819 
3 -1 -2.24147 4.61143 1.82009 
1 1 -1.99106 4.27687 0.651659 
3 -1 -1.95384 4.27455 1.17357 
2 1 -2.09987 4.06229 -1.03906 
3 -1 -2.06795 4.05828 -0.931821 
1 1 -2.28859 3.1249 -1.22552 
3 -1 -2.18387 3.56483 -1.1621 
1 1 -1.24956 4.23982 -1.48025 
3 -1 -1.63656 4.14065 -1.2987 
2 1 -2.06386 1.24251 -1.04808 
3 -1 -1.99567 1.28876 -1.08795 
1 1 -2.34059 0.327443 -1.23925 
3 -1 -2.2085 0.744233 -1.12754 
1 1 -1.90274 1.24415 -0.0768405 
3 -1 -2.00009 1.224 -0.560611 
ITEM: TIMESTEP
70
ITEM: NUMBER OF ATOMS
120
ITEM: BOX BOUNDS pp pp pp
-2.5000000000000000e+02 2.5000000000000000e+02
-2.5000000000000000e+02 2.5000000000000000e+02
-2.5000000000000000e+02 2.5000000000000000e+02
ITEM: ATOMS type q x y z 
2 1 0.531371 -1.32448 -2.31544 
3 -1 0.454993 -1.35162 -2.28473 
1 1 0.574399 -0.404634 -2.65629 
3 -1 0.57091 -0.808751 -2.48958 
1 1 1.18438 -1.33381 -1.57184 
3 -1 0.867237 -1.31248 -1.9517 
2 1 1.14251 -4.32429 2.06696 
3 -1 1.10708 -4.29623 2.08519 
1 1 1.57269 -5.00879 2.58584 
3 -1 1.41456 -4.74332 2.36784 
1 1 1.58427 -4.38366 1.17589 
3 -1 1.36417 -4.38389 1.67165 
2 1 0.435591 -4.20167 -2.33273 
3 -1 0.469552 -4.18196 -2.26172 
1 1 0.450969 -3.26838 -2.62387 
3 -1 0.419695 -3.6794 -2.49564 
1 1 -0.458259 -4.336 -1.95686 
3 -1 -0.0710259 -4.25875 -2.1353 
2 1 2.37173 -1.30526 -0.258204 
3 -1 2.32488 -1.32718 -0.313761 
1 1 2.72638 -0.390053 -0.274925 
3 -1 2.55684 -0.790848 -0.247536 
1 1 1.8464 -1.35172 0.577552 
3 -1 2.11906 -1.30864 0.171462 
2 1 0.973955 -1.53604 2.11115 
3 -1 1.01588 -1.48577 2.05669 
1 1 0.0135554 -1.51507 1.87378 
3 -1 0.489775 -1.54211 2.00358 
1 1 1.1358 -2.48017 2.34777 
3 -1 1.04088 -2.05257 2.23319 
2 1 -1.62329 -4.23604 1.53443 
3 -1 -1.62568 -4.22798 1.4212 
1 1 -0.663705 -4.36089 1.72338 
3 -1 -1.10796 -4.28522 1.6535 
1 1 -1.80316 -3.29873 1.77154 
3 -1 -1.70221 -3.72551 1.68007 
2 1 2.32962 -4.17102 -0.322762 
3 -1 2.25843 -4.16377 -0.21014 
1 1 1.66949 -4.28725 -1.05395 
3 -1 2.00505 -4.21446 -0.706242 
1 1 2.62594 -3.23759 -0.405839 
3 -1 2.49228 -3.6514 -0.391987 
2 1 -1.71521 -1.40013 1.53354 
3 -1 -1.64142 -1.43788 1.55291 
1 1 -1.78481 -1.40204 0.546742 
3 -1 -1.76335 -1.38036 1.04149 
1 1 -1.98178 -0.489133 1.79375 
3 -1 -1.86305 -0.89481 1.65292 
2 1 -1.97213 -1.53522 -1.20338 
3 -1 -1.97616 -1.4856 -1.12943 
1 1 -1.05292 -1.50951 -1.57472 
3 -1 -1.52052 -1.53998 -1.39928 
1 1 -2.24855 -2.47524 -1.32408 
3 -1 -2.10173 -2.05028 -1.27561 
2 1 -2.14875 -4.31548 -1.11164 
3 -1 -2.14259 -4.28347 -1.1407 
1 1 -2.81639 -4.98499 -1.28367 
3 -1 -2.55229 -4.72668 -1.19761 
1 1 -1.95492 -4.41001 -0.141392 
3 -1 -2.08059 -4.393 -0.652371 
2 1 0.466556 4.36298 -2.27049 
3 -1 0.439065 4.35151 -2.278 
1 1 0.652325 5.06232 -2.90442 
3 -1 0.597576 4.78662 -2.63488 
1 1 1.13806 4.48556 -1.55382 
3 -1 0.817361 4.45171 -1.92837 
2 1 1.05331 1.25581 2.08969 
3 -1 0.974304 1.3033 2.08111 
1 1 1.19337 0.32776 2.39622 
3 -1 1.13794 0.75101 2.23307 
1 1 1.48463 1.28148 1.19865 
3 -1 1.28362 1.2514 1.64611 
2 1 0.367752 1.51674 -2.29563 
3 -1 0.423068 1.49488 -2.24879 
1 1 -0.497447 1.4294 -1.82387 
3 -1 -0.0682903 1.49162 -2.07286 
1 1 0.391599 2.45533 -2.58212 
3 -1 0.36409 2.04809 -2.44413 
2 1 2.27407 4.37413 -0.191026 
3 -1 2.24999 4.37076 -0.250428 
1 1 1.73894 4.35545 0.649049 
3 -1 2.05394 4.39114 0.208122 
1 1 2.96506 5.02025 -0.0134164 
3 -1 2.68422 4.75997 -0.0705676 
2 1 0.902651 4.07577 2.08944 
3 -1 0.947541 4.07875 1.96766 
1 1 -0.0687916 4.20791 1.97365 
3 -1 0.375459 4.12756 2.04222 
1 1 1.00073 3.13014 2.35375 
3 -1 0.928571 3.57153 2.24192 
2 1 -1.66483 1.40527 1.66314 
3 -1 -1.68199 1.3651 1.59046 
1 1 -0.685448 1.3769 1.79863 
3 -1 -1.17642 1.41027 1.74349 
1 1 -1.90832 2.33738 1.86532 
3 -1 -1.77568 1.92094 1.77824 
2 1 2.3127 1.51758 -0.346712 
3 -1 2.28611 1.48591 -0.279363 
1 1 2.59202 2.45823 -0.338323 
3 -1 2.45386 2.04604 -0.359761 
1 1 1.59853 1.48814 -1.03048 
3 -1 1.96373 1.51875 -0.696411 
2 1 -1.86603 4.21496 1.63826 
3 -1 -1.83428 4.19095 1.6644 
1 1 -2.47842 4.86989 1.98949 
3 -1 -2.24001 4.61091 1.82903 
1 1 -1.9831 4.27887 0.653753 
3 -1 -1.94713 4.27457 1.17821 
2 1 -2.10126 4.06318 -1.04447 
3 -1 -2.0689 4.06068 -0.936193 
1 1 -2.28896 3.1134 -1.22877 
3 -1 -2.18541 3.558 -1.16558 
1 1 -1.23712 4.23797 -1.48044 
3 -1 -1.62614 4.14188 -1.30076 
2 1 -2.06818 1.24338 -1.05062 
3 -1 -1.99953 1.29377 -1.09018 
1 1 -2.34317 0.315788 -1.24624 
3 -1 -2.211 0.738508 -1.13349 
1 1 -1.89625 1.24418 -0.0751065 
3 -1 -1.99537 1.22574 -0.560005 
ITEM: TIMESTEP
80
ITEM: NUMBER OF ATOMS
120
ITEM: BOX BOUNDS pp pp pp
-2.5000000000000000e+02 2.5000000000000000e+02
-2.5000000000000000e+02 2.5000000000000000e+02
-2.5000000000000000e+02 2.5000000000000000e+02
ITEM: ATOMS type q x y z 
2 1 0.531992 -1.32455 -2.32063 
3 -1 0.455983 -1.35152 -2.28896 
1 1 0.573782 -0.402554 -2.65142 
3 -1 0.57048 -0.807974 -2.48807 
1 1 1.18372 -1.33823 -1.57173 
3 -1 0.865662 -1.31526 -1.95258 
2 1 1.14031 -4.32406 2.07316 
3 -1 1.10628 -4.2964 2.09236 
1 1 1.5651 -5.00877 2.60156 
3 -1 1.40874 -4.74366 2.38151 
1 1 1.57608 -4.38402 1.16912 
3 -1 1.35534 -4.38167 1.66871 
2 1 0.434727 -4.20086 -2.33449 
3 -1 0.469036 -4.18122 -2.26299 
1 1 0.448013 -3.26737 -2.62226 
3 -1 0.416849 -3.67871 -2.4944 
1 1 -0.456263 -4.33135 -1.95584 
3 -1 -0.0692372 -4.25496 -2.13522 
2 1 2.37697 -1.30508 -0.259291 
3 -1 2.32896 -1.32748 -0.314339 
1 1 2.727 -0.388933 -0.27623 
3 -1 2.55881 -0.790608 -0.249049 
1 1 1.84415 -1.35297 0.574165 
3 -1 2.11805 -1.30934 0.168314 
2 1 0.976298 -1.53472 2.11614 
3 -1 1.01674 -1.48437 2.06295 
1 1 0.0151384 -1.5136 1.86927 
3 -1 0.492076 -1.53984 2.001 
1 1 1.13974 -2.47815 2.35158 
3 -1 1.04436 -2.05044 2.23652 
2 1 -1.62385 -4.23581 1.54082 
3 -1 -1.62392 -4.22725 1.42604 
1 1 -0.666333 -4.35595 1.71944 
3 -1 -1.11024 -4.28186 1.65253 
1 1 -1.80094 -3.29873 1.77131 
3 -1 -1.70008 -3.72624 1.68219 
2 1 2.33525 -4.16943 -0.327901 
3 -1 2.26276 -4.16136 -0.215935 
1 1 1.67266 -4.28825 -1.05865 
3 -1 2.00851 -4.21333 -0.710349 
1 1 2.61788 -3.23828 -0.412145 
3 -1 2.48913 -3.65135 -0.398532 
2 1 -1.71895 -1.40047 1.53789 
3 -1 -1.64531 -1.4382 1.55593 
1 1 -1.78148 -1.4042 0.548186 
3 -1 -1.76072 -1.38294 1.04341 
1 1 -1.97932 -0.486973 1.79828 
3 -1 -1.86227 -0.894128 1.65742 
2 1 -1.97692 -1.53401 -1.20643 
3 -1 -1.98085 -1.48427 -1.13415 
1 1 -1.05004 -1.50846 -1.5692 
3 -1 -1.51997 -1.53773 -1.39538 
1 1 -2.25669 -2.47358 -1.32385 
3 -1 -2.10852 -2.04859 -1.27566 
2 1 -2.1495 -4.31509 -1.11697 
3 -1 -2.1446 -4.28366 -1.14659 
1 1 -2.81777 -4.98314 -1.29635 
3 -1 -2.55415 -4.72547 -1.20919 
1 1 -1.94246 -4.4093 -0.139286 
3 -1 -2.07143 -4.39035 -0.654381 
2 1 0.463743 4.36065 -2.27259 
3 -1 0.436462 4.349 -2.28029 
1 1 0.649775 5.06111 -2.90451 
3 -1 0.594456 4.78472 -2.6361 
1 1 1.13437 4.47953 -1.54795 
3 -1 0.812554 4.44645 -1.92487 
2 1 1.05563 1.25603 2.09434 
3 -1 0.977198 1.30341 2.08456 
1 1 1.18836 0.324802 2.40087 
3 -1 1.13501 0.749644 2.23747 
1 1 1.47973 1.28254 1.1984 
3 -1 1.2801 1.2535 1.64619 
2 1 0.369728 1.51705 -2.30119 
3 -1 0.424287 1.49489 -2.25403 
1 1 -0.494755 1.42671 -1.82096 
3 -1 -0.0649536 1.48962 -2.07193 
1 1 0.391272 2.45507 -2.58554 
3 -1 0.364895 2.0474 -2.4477 
2 1 2.28002 4.37407 -0.195228 
3 -1 2.25647 4.37056 -0.254401 
1 1 1.7267 4.3563 0.644707 
3 -1 2.04692 4.3904 0.201501 
1 1 2.97475 5.01815 -0.0168383 
3 -1 2.69327 4.75878 -0.0748528 
2 1 0.900401 4.07562 2.09716 
3 -1 0.942887 4.07828 1.97366 
1 1 -0.0659476 4.20361 1.97465 
3 -1 0.376909 4.12485 2.04493 
1 1 0.999457 3.12998 2.35288 
3 -1 0.926321 3.5718 2.24426 
2 1 -1.66917 1.40368 1.66709 
3 -1 -1.68549 1.36334 1.59573 
1 1 -0.685465 1.37439 1.79536 
3 -1 -1.17789 1.40718 1.74127 
1 1 -1.91341 2.33574 1.86629 
3 -1 -1.78045 1.91869 1.77949 
2 1 2.318 1.51673 -0.347198 
3 -1 2.29156 1.48525 -0.280927 
1 1 2.59315 2.45616 -0.339762 
3 -1 2.45593 2.04441 -0.360638 
1 1 1.59709 1.48862 -1.0292 
3 -1 1.96379 1.51885 -0.694621 
2 1 -1.86651 4.21422 1.64328 
3 -1 -1.83619 4.19061 1.67062 
1 1 -2.47417 4.86812 2.00472 
3 -1 -2.23783 4.61002 1.84244 
1 1 -1.9751 4.27769 0.646935 
3 -1 -1.93979 4.27147 1.17671 
2 1 -2.10221 4.06365 -1.05098 
3 -1 -2.06757 4.06088 -0.94136 
1 1 -2.28728 3.11293 -1.23001 
3 -1 -2.18383 3.55879 -1.16886 
1 1 -1.23672 4.23341 -1.47645 
3 -1 -1.62647 4.13914 -1.29991 
2 1 -2.07315 1.24372 -1.05342 
3 -1 -2.00455 1.29443 -1.0917 
1 1 -2.34349 0.312998 -1.25263 
3 -1 -2.21233 0.737449 -1.13866 
1 1 -1.89313 1.24501 -0.0774825 
3 -1 -1.99333 1.22762 -0.56234 
ITEM: TIMESTEP
90
ITEM: NUMBER OF ATOMS
120
ITEM: BOX BOUNDS pp pp pp
-2.5000000000000000e+02 2.5000000000000000e+02
-2.5000000000000000e+02 2.5000000000000000e+02
-2.5000000000000000e+02 2.5000000000000000e+02
ITEM: ATOMS type q x y z 
2 1 0.532983 -1.32423 -2.32599 
3 -1 0.460823 -1.34844 -2.294 
1 1 0.572366 -0.407617 -2.64523 
3 -1 0.570136 -0.810347 -2.48532 
1 1 1.18044 -1.34241 -1.58047 
3 -1 0.864681 -1.31699 -1.95762 
2 1 1.13812 -4.32398 2.07968 
3 -1 1.1062 -4.29939 2.0995 
1 1 1.55489 -5.00444 2.61344 
3 -1 1.40171 -4.74141 2.3924 
1 1 1.56986 -4.38309 1.16816 
3 -1 1.34968 -4.37867 1.66732 
2 1 0.43363 -4.19953 -2.33643 
3 -1 0.466286 -4.17911 -2.26692 
1 1 0.44534 -3.27139 -2.62035 
3 -1 0.41439 -3.67959 -2.4931 
1 1 -0.453269 -4.32678 -1.95764 
3 -1 -0.0676158 -4.25067 -2.13674 
2 1 2.38261 -1.30445 -0.260264 
3 -1 2.33552 -1.32505 -0.312829 
1 1 2.72519 -0.395291 -0.277576 
3 -1 2.55911 -0.793909 -0.249196 
1 1 1.84893 -1.35375 0.567198 
3 -1 2.12136 -1.31009 0.164391 
2 1 0.9785 -1.53356 2.12156 
3 -1 1.01586 -1.48768 2.06959 
1 1 0.023567 -1.51307 1.87045 
3 -1 0.496089 -1.53843 2.00238 
1 1 1.14299 -2.46802 2.3542 
3 -1 1.04667 -2.04472 2.23966 
2 1 -1.62446 -4.23519 1.54774 
3 -1 -1.62202 -4.2243 1.43583 
1 1 -0.672089 -4.35111 1.71843 
3 -1 -1.11415 -4.27783 1.65362 
1 1 -1.79879 -3.30497 1.77009 
3 -1 -1.698 -3.72878 1.68367 
2 1 2.34087 -4.16757 -0.333845 
3 -1 2.26735 -4.15791 -0.225873 
1 1 1.68454 -4.28885 -1.0581 
3 -1 2.01694 -4.21128 -0.71293 
1 1 2.61025 -3.24195 -0.417395 
3 -1 2.48528 -3.65368 -0.404853 
2 1 -1.72313 -1.40026 1.54249 
3 -1 -1.6524 -1.43399 1.55826 
1 1 -1.78199 -1.40588 0.557112 
3 -1 -1.76155 -1.38402 1.04877 
1 1 -1.97434 -0.495376 1.79993 
3 -1 -1.86058 -0.898018 1.65947 
2 1 -1.98177 -1.53307 -1.20998 
3 -1 -1.9839 -1.48816 -1.14092 
1 1 -1.05832 -1.50841 -1.56353 
3 -1 -1.52457 -1.53664 -1.39331 
1 1 -2.26247 -2.46196 -1.32281 
3 -1 -2.11319 -2.04221 -1.2763 
2 1 -2.15006 -4.31472 -1.12224 