LAMMPS (7 Aug 2019)
# ReaxFF/C-GeM example water
# .....

units		real

atom_style	charge

read_data       data.water_cluster #input file
  orthogonal box = (-250 -250 -250) to (250 250 250)
  1 by 1 by 1 MPI processor grid
  reading atoms ...
  120 atoms
  read_data CPU = 0.0019463 secs

pair_style	reax/c NULL checkqeq no lgvdw yes            #Specify to utilize the ReaxFF with the lgvdW correction
pair_coeff	* * ffield.reax.eReaxFF  H O EL Cl Na Ca I   #Specify the ReaxFF/C-GeM parameter file
WARNING: VdWaals parameters for element EL indicate shielding without inner wall, but earlier elements indicate different vdWaals-method. This may cause division-by-zero errors. Keeping vdWaals-setting for earlier atoms. (../reaxc_ffield.cpp:302)
WARNING: Changed valency_val to valency_boc for EL (../reaxc_ffield.cpp:325)

compute reax all pair reax/c

#Define variables for the ReaxFF energy terms, this is required to print the individual terms

variable eb      equal c_reax[1]
variable ea      equal c_reax[2]
variable elp     equal c_reax[3]
variable emol    equal c_reax[4]
variable ev      equal c_reax[5]
variable epen    equal c_reax[6]
variable ecoa    equal c_reax[7]
variable ehb     equal c_reax[8]
variable et      equal c_reax[9]
variable eco     equal c_reax[10]
variable ew      equal c_reax[11]
variable ep      equal c_reax[12]
variable efi     equal c_reax[13]
variable eqeq    equal c_reax[14]

neighbor        2.2 bin #distance
neigh_modify    every 4 delay 0 check yes page 120000 one 12000 #frequency to update nblist, here every step

group cores type  1 2 4 5 6 7
60 atoms in group cores
group shells type 3
60 atoms in group shells

#fix             1 all property/atom d_fx_efield d_fy_efield d_fz_efield ghost yes
fix              1 all property/atom d_fx_efield d_fy_efield d_fz_efield d_E_pot ghost yes

fix 2 cores setforce 0.0 0.0 0.0                         #fix the cores, all the forces are 0.
min_style cg                                             #min of the shells with congugate gradient
minimize 1.0e-8 0.0 10000 10000                          #min for shell
WARNING: Using 'neigh_modify every 1 delay 0 check yes' setting during minimization (../min.cpp:168)
Neighbor list info ...
  update every 1 steps, delay 0 steps, check yes
  max neighbors/atom: 12000, page size: 120000
  master list distance cutoff = 12.2
  ghost atom cutoff = 12.2
  binsize = 6.1, bins = 82 82 82
  1 neighbor lists, perpetual/occasional/extra = 1 0 0
  (1) pair reax/c, perpetual
      attributes: half, newton off, ghost
      pair build: half/bin/newtoff/ghost
      stencil: half/ghost/bin/3d/newtoff
      bin: standard
Per MPI rank memory allocation (min/avg/max) = 18.28 | 18.28 | 18.28 Mbytes
Step Temp E_pair E_mol TotEng Press 
       0            0   -28827.612            0   -28827.612 -0.096818068 
      18            0   -29830.236            0   -29830.236  0.076669586 
Loop time of 0.0812789 on 1 procs for 18 steps with 120 atoms

96.1% CPU use with 1 MPI tasks x no OpenMP threads

Minimization stats:
  Stopping criterion = energy tolerance
  Energy initial, next-to-last, final = 
        -28827.6122312     -29830.2357638     -29830.2358973
  Force two-norm initial, final = 638.334 0.204617
  Force max component initial, final = 177.154 0.0432854
  Final line search alpha, max atom move = 0.983177 0.0425572
  Iterations, force evaluations = 18 29

MPI task timing breakdown:
Section |  min time  |  avg time  |  max time  |%varavg| %total
---------------------------------------------------------------
Pair    | 0.080749   | 0.080749   | 0.080749   |   0.0 | 99.35
Neigh   | 0          | 0          | 0          |   0.0 |  0.00
Comm    | 3.18e-05   | 3.18e-05   | 3.18e-05   |   0.0 |  0.04
Output  | 0          | 0          | 0          |   0.0 |  0.00
Modify  | 2.19e-05   | 2.19e-05   | 2.19e-05   |   0.0 |  0.03
Other   |            | 0.0004759  |            |       |  0.59

Nlocal:    120 ave 120 max 120 min
Histogram: 1 0 0 0 0 0 0 0 0 0
Nghost:    0 ave 0 max 0 min
Histogram: 1 0 0 0 0 0 0 0 0 0
Neighs:    7140 ave 7140 max 7140 min
Histogram: 1 0 0 0 0 0 0 0 0 0

Total # of neighbors = 7140
Ave neighs/atom = 59.5
Neighbor list builds = 0
Dangerous builds = 0
unfix 2 #unfix

fix            3 cores nvt temp 130 130 100              #Define NVT dynamics for the cores, Temp=300K
fix            4 shells nvt temp 1 1 100                 #Define NVT dynamics for the shells, Temp=1K

compute         1 cores  temp                            #Define to compute the temp of the cores  c_1
compute         2 shells temp                            #Define to compute the temp of the shells c_2

thermo          10                                       #Frequency to output system properties
thermo_style    custom step  etotal v_ep c_1 c_2                 #Output system properties
dump            1 all custom 10 dump.lammpstrj type q x y z #Define output dump file "dump.lammpstrj"
dump_modify     1 sort id                                #Specify to print atoms in the same order

fix             5 all momentum 1 linear 1 1 1 angular     #fix system center of mass

# run equilibration

timestep	0.25                                     #MD timestep
run		10000                                     #number of iterations in MD
Per MPI rank memory allocation (min/avg/max) = 17.16 | 17.16 | 17.16 Mbytes
Step TotEng v_ep c_1 c_2 
      18   -29830.236   -26574.238            0            0 
      20   -29830.236   -26574.324   0.45567154 0.00064962742 
      30   -29830.239    -26576.12    4.7315043   0.02585653 
      40   -29830.235   -26576.105    5.3935017  0.012311814 
      50   -29830.232   -26572.746    9.6165444  0.025009607 
      60   -29830.224   -26570.438    11.581444  0.031876347 
      70    -29830.21   -26571.603    14.781414  0.029557424 
      80   -29830.192   -26571.885    17.045009  0.034142788 
      90   -29830.167   -26569.105    17.660104  0.031084252 
     100   -29830.139    -26567.01    20.383616  0.053716942 
     110   -29830.101   -26567.001    21.927803  0.050552039 
     120   -29830.058   -26566.316     25.15805  0.060995134 
     130   -29830.005    -26563.75    24.781138  0.075384681 
     140    -29829.95   -26562.205    26.359764  0.092093723 
     150    -29829.89   -26562.499    25.273628  0.079115267 
     160   -29829.829   -26562.702     25.06995    0.0730555 
     170    -29829.77   -26561.723    22.763254  0.058843183 
     180   -29829.712   -26560.493    22.750276  0.050933205 
     190   -29829.654   -26559.409    23.084417  0.044750518 
     200   -29829.593   -26558.356    23.254444  0.036774589 
     210   -29829.535   -26557.456    22.724767  0.042506711 
     220   -29829.478   -26556.785    21.731084  0.045425499 
     230   -29829.425   -26556.217    21.839353  0.044449302 
     240   -29829.373   -26556.112     20.14511  0.040018949 
     250   -29829.326   -26556.588    19.465228  0.037435712 
     260   -29829.281   -26556.451    19.478651  0.045255693 
     270   -29829.235    -26555.39    21.185308   0.06049114 
     280   -29829.187   -26555.053    21.934856  0.055990472 
     290   -29829.139   -26556.239    21.972462  0.055672267 
     300   -29829.093   -26557.177    22.229578  0.061909827 
     310   -29829.045   -26557.282    22.564276  0.053558344 
     320   -29828.999   -26558.281    21.938836  0.040414047 
     330   -29828.953   -26560.416    22.169617  0.043469851 
     340   -29828.906   -26561.527    23.060858  0.044074375 
     350   -29828.856   -26561.354    25.359673  0.053637182 
     360   -29828.801   -26561.913    25.735865  0.051138386 
     370   -29828.745   -26563.683    26.033979  0.063838273 
     380   -29828.689   -26564.976     26.56784  0.071093407 
     390   -29828.629   -26565.564    26.542571  0.068445445 
     400    -29828.57    -26566.85    27.396776  0.064347678 
     410   -29828.506   -26568.506    27.219491  0.051678035 
     420   -29828.441   -26569.487    31.318041  0.060011755 
     430   -29828.363   -26569.891    32.224269  0.057981151 
     440   -29828.284   -26570.962    35.695426  0.070268887 
     450   -29828.196   -26572.246    34.164427  0.058291315 
     460   -29828.111   -26573.647    36.991025  0.081162602 
     470   -29828.019   -26575.042    34.917956   0.07650791 
     480    -29827.93   -26576.722    36.548077  0.080660306 
     490   -29827.838   -26577.751    34.726252   0.06960446 
     500   -29827.745   -26578.688    37.397657  0.087751956 
     510   -29827.648   -26579.651    36.410963  0.080780783 
     520   -29827.553   -26580.432    35.486545  0.082468923 
     530   -29827.463   -26580.738    32.482863  0.093161228 
     540   -29827.378   -26581.205    29.277845  0.078923092 
     550   -29827.304   -26582.188    27.381568  0.069367095 
     560   -29827.232   -26582.831    22.732934  0.052791138 
     570   -29827.171   -26583.197    23.165729  0.068106709 
     580   -29827.108   -26583.397    20.225524   0.04640743 
     590   -29827.049   -26584.132    21.986471   0.05867601 
     600   -29826.991    -26584.58    17.501444  0.053328095 
     610    -29826.94   -26584.765    17.369691  0.061868812 
     620   -29826.894   -26584.762    15.090216  0.045144395 
     630   -29826.846   -26585.022    15.549161  0.043372808 
     640   -29826.801    -26585.27    16.244025  0.038711727 
     650   -29826.747   -26585.366     18.46158  0.038459778 
     660   -29826.687   -26585.488    23.180745  0.067722215 
     670   -29826.611   -26585.268    24.554767  0.063896676 
     680   -29826.535   -26584.706    26.796748  0.057725608 
     690   -29826.453   -26584.172    25.806242  0.045668812 
     700   -29826.374   -26584.118    27.953634  0.058439594 
     710   -29826.289    -26583.52    26.749787  0.056912709 
     720   -29826.206   -26582.686    28.526744  0.070865169 
     730   -29826.118   -26582.532    28.885757  0.083008839 
     740   -29826.027    -26583.01    31.600421   0.10684425 
     750   -29825.932   -26581.849       30.348  0.098986571 
     760   -29825.841   -26579.771    29.669775  0.091353609 
     770   -29825.754   -26579.169    27.680365  0.069748946 
     780   -29825.669   -26579.458    27.629726  0.059059885 
     790   -29825.587   -26577.904    26.846688  0.063235411 
     800   -29825.503   -26575.531    27.209723  0.054702979 
     810   -29825.418    -26575.56     29.03617  0.066825889 
     820   -29825.326   -26576.291    30.006418  0.074935794 
     830   -29825.233   -26574.034    30.166869  0.074747992 
     840   -29825.142   -26570.864     28.02077  0.068823817 
     850   -29825.057   -26570.762    27.830172  0.062947798 
     860   -29824.971   -26571.489    25.889053  0.065037452 
     870   -29824.892   -26569.556    26.187425  0.071403938 
     880    -29824.81   -26567.119    24.266948  0.063615956 
     890   -29824.732   -26568.022    27.063424   0.09185449 
     900   -29824.645   -26568.928    25.631803    0.0768992 
     910   -29824.563   -26566.826    26.713983  0.077384687 
     920   -29824.481   -26564.153    23.859174  0.061730077 
     930   -29824.403   -26564.376    25.238165  0.058922247 
     940   -29824.323   -26564.887    24.859766  0.058463406 
     950   -29824.239   -26563.359    25.323041  0.058553839 
     960   -29824.158   -26562.188    27.345701  0.076891011 
     970   -29824.064   -26562.873    27.914392  0.090981867 
     980    -29823.97   -26563.225    32.085461  0.093633648 
     990   -29823.864   -26561.921    29.785007  0.079405835 
    1000   -29823.764   -26561.157    34.601626  0.097157801 
    1010   -29823.649   -26561.057     33.67283  0.074409081 
    1020   -29823.533   -26561.319    40.210983    0.1029152 
    1030   -29823.401   -26561.775    39.140592  0.085985488 
    1040   -29823.265   -26563.456    45.733051   0.10191553 
    1050   -29823.115   -26564.394    47.570665   0.10547448 
    1060   -29822.954   -26564.744    52.513486   0.12265468 
    1070   -29822.789   -26565.562    52.894489     0.109542 
    1080   -29822.615   -26566.597    55.501081    0.1133071 
    1090    -29822.44    -26566.39    58.541781    0.1361262 
    1100   -29822.252   -26566.288    59.363449   0.14649212 
    1110    -29822.07   -26568.415    61.833809   0.15364667 
    1120   -29821.877   -26570.397    60.059758   0.14946104 
    1130   -29821.694   -26570.067    64.003555   0.17454704 
    1140     -29821.5   -26568.884    58.762378   0.14812031 
    1150   -29821.326   -26569.588     59.59002   0.14539583 
    1160   -29821.152   -26569.892    53.271054    0.1079154 
    1170   -29820.991   -26569.082    55.715278   0.12053535 
    1180   -29820.828   -26569.204    50.629445  0.083651479 
    1190   -29820.672   -26572.093    51.551139  0.089386158 
    1200   -29820.521   -26574.014      48.9164  0.088476068 
    1210   -29820.369   -26573.677    48.426853  0.099668265 
    1220   -29820.228   -26572.963    45.380949   0.10568267 
    1230   -29820.088   -26572.759    41.141393  0.090009066 
    1240   -29819.965    -26572.15    41.501954  0.099258298 
    1250   -29819.833   -26570.954    39.691969  0.082203316 
    1260   -29819.707   -26571.251     43.04948   0.12130783 
    1270   -29819.565   -26571.696    42.775076   0.11320963 
    1280   -29819.424    -26571.06    48.774475   0.12484825 
    1290   -29819.263   -26569.215    49.208834    0.1239126 
    1300   -29819.103   -26567.028     51.77346   0.12735632 
    1310   -29818.938   -26563.767    49.942838   0.10646059 
    1320   -29818.776   -26560.481    51.941263  0.098593886 
    1330   -29818.609   -26559.385    52.642003   0.10304097 
    1340   -29818.438   -26559.982    53.691172   0.13288531 
    1350   -29818.264   -26559.652    57.044165   0.14383655 
    1360   -29818.078   -26558.349    58.433708   0.15588204 
    1370   -29817.891   -26557.871     61.90229   0.18427816 
    1380   -29817.695   -26556.977    58.611662   0.15948665 
    1390   -29817.513   -26554.135    60.139528   0.14599816 
    1400   -29817.326   -26551.314    56.510361   0.12888957 
    1410    -29817.15   -26552.205    58.899581   0.15420549 
    1420   -29816.967   -26554.131    55.031688   0.14513519 
    1430   -29816.796   -26554.036     57.97091   0.14485905 
    1440   -29816.615   -26552.032    54.234119   0.13922461 
    1450   -29816.447     -26551.1    56.446129   0.15893557 
    1460   -29816.276   -26549.516    48.879113   0.11329062 
    1470   -29816.128   -26546.257    49.429246   0.11274426 
    1480   -29815.978   -26543.619    41.569141   0.09920265 
    1490   -29815.846   -26544.797    44.104623   0.12939082 
    1500    -29815.71   -26546.682    38.925654   0.10609136 
    1510    -29815.58   -26546.951    42.138261   0.12085473 
    1520   -29815.447   -26546.131    41.490792   0.13028704 
    1530   -29815.304    -26545.47    42.285002   0.12796853 
    1540   -29815.171   -26544.182     42.45989   0.11949862 
    1550   -29815.029     -26542.4     38.63293   0.11196443 
    1560   -29814.902   -26542.621    43.592957   0.13349632 
    1570   -29814.753   -26544.303    40.845562   0.11366102 
    1580   -29814.611   -26546.608    48.779751   0.16587652 
    1590   -29814.448   -26547.879    45.537943    0.1388879 
    1600   -29814.286    -26548.28    53.130747   0.16007591 
    1610   -29814.114   -26546.046    48.688103   0.14031077 
    1620   -29813.948   -26543.768    50.442675    0.1531107 
    1630   -29813.792   -26543.493    45.531922   0.12638617 
    1640   -29813.633   -26545.018     48.04499   0.13411942 
    1650   -29813.475   -26546.319    50.753956   0.15247421 
    1660   -29813.294   -26548.405    54.255853   0.14099424 
    1670   -29813.108   -26551.912    61.580251   0.15167695 
    1680   -29812.894   -26553.287    65.124223    0.1517776 
    1690   -29812.674    -26551.71     71.92409   0.20719173 
    1700   -29812.441   -26550.763    70.871775   0.16740119 
    1710   -29812.207   -26553.575    74.289247    0.1916284 
    1720    -29811.97   -26556.908    78.280599   0.21473193 
    1730   -29811.712   -26558.923    80.855819   0.21571178 
    1740   -29811.461   -26561.606    86.997836   0.22051308 
    1750   -29811.187   -26564.564    84.042728    0.2098511 
    1760   -29810.932   -26565.476    91.541695   0.25806291 
    1770   -29810.659   -26562.845    83.113268   0.21409618 
    1780   -29810.416   -26561.612    85.668324   0.21727379 
    1790    -29810.17   -26563.126    78.018458   0.18936872 
    1800   -29809.934   -26566.185    84.061055   0.23065212 
    1810   -29809.692   -26568.209    82.018628   0.21050948 
    1820   -29809.446   -26570.226    84.525296   0.23182348 
    1830   -29809.206    -26571.79    84.410361    0.2400504 
    1840    -29808.96   -26571.619    82.149362   0.21512308 
    1850   -29808.733   -26569.987     77.72489   0.20945279 
    1860   -29808.513   -26568.513    71.767357   0.18416449 
    1870   -29808.309   -26568.774    71.828895   0.19717045 
    1880   -29808.094   -26570.925    75.677389   0.21222376 
    1890   -29807.869   -26573.748     79.36328    0.2133586 
    1900    -29807.63   -26575.113    84.480678   0.23392861 
    1910   -29807.378   -26573.515    90.190386   0.24393955 
    1920    -29807.11   -26570.746    94.480364   0.23915974 
    1930   -29806.841    -26568.98    95.008836   0.24205539 
    1940   -29806.569   -26567.129    94.637484   0.21153564 
    1950     -29806.3   -26565.438    100.39544   0.23914398 
    1960   -29806.013   -26566.231    103.98025   0.25621404 
    1970   -29805.724   -26569.368    107.74209   0.26445287 
    1980    -29805.43   -26569.457    107.85916   0.28608924 
    1990   -29805.139   -26565.442    110.46426    0.2906185 
    2000    -29804.85   -26562.261    108.25033   0.28476504 
    2010   -29804.572   -26562.223    103.61818   0.25878905 
    2020   -29804.308   -26561.335    101.42298   0.24899955 
    2030   -29804.044   -26559.251    103.94891   0.25969322 
    2040   -29803.776   -26560.823    107.89855   0.28685976 
    2050   -29803.499   -26564.911    107.43484   0.29109274 
    2060   -29803.231   -26565.243    107.79624    0.2886302 
    2070   -29802.964    -26561.41    104.34353   0.28375946 
    2080   -29802.715   -26558.821    99.934143   0.27819967 
    2090   -29802.476   -26558.599    87.922022   0.24963681 
    2100   -29802.267   -26557.723    85.355014   0.25016391 
    2110   -29802.056   -26556.148    78.660801   0.23035153 
    2120   -29801.858   -26557.329     79.68061   0.25941761 
    2130   -29801.657   -26559.235    74.607709   0.21385867 
    2140   -29801.458   -26559.466    79.163369   0.24050558 
    2150    -29801.25   -26558.181    80.663849   0.23301094 
    2160   -29801.025   -26558.409    83.010297   0.25614881 
    2170   -29800.803   -26559.968    88.432745    0.2727161 
    2180   -29800.552    -26561.83    91.483082   0.26760748 
    2190   -29800.304   -26564.848    101.78238   0.31470822 
    2200   -29800.026   -26567.469    96.757254   0.28249602 
    2210   -29799.774   -26569.029    101.66083   0.29985125 
    2220   -29799.509   -26568.383    90.326914   0.25855667 
    2230   -29799.279   -26567.813    89.599023   0.27557381 
    2240    -29799.05   -26566.052    79.041065   0.20805987 
    2250   -29798.843   -26564.673    79.935173   0.22551457 
    2260    -29798.63   -26565.665    79.689165   0.20894542 
    2270   -29798.409   -26568.699     81.95406   0.19557178 
    2280   -29798.184   -26570.695    86.758101   0.21618343 
    2290   -29797.947   -26571.102    83.138768   0.22470948 
    2300   -29797.718   -26572.435    89.399285   0.25780694 
    2310   -29797.475   -26573.631    82.098009   0.24406405 
    2320   -29797.248   -26573.741    89.149711   0.27266657 
    2330   -29797.011   -26573.752    79.850822   0.23406319 
    2340   -29796.787    -26576.32    85.149889   0.25723464 
    2350   -29796.558   -26578.824    80.355926   0.24849616 
    2360   -29796.325    -26579.95    86.552136   0.27974276 
    2370   -29796.091   -26579.556     87.83047   0.28402098 
    2380   -29795.833    -26579.12    91.869832   0.31143334 
    2390   -29795.579   -26578.241    99.877029   0.31920021 
    2400   -29795.298   -26576.161    95.765702    0.3036722 
    2410   -29795.043   -26574.623     100.5309   0.34272048 
    2420   -29794.772   -26573.295    91.857261    0.2675364 
    2430   -29794.524   -26573.521     100.5942   0.30785481 
    2440   -29794.254   -26573.303    94.284096   0.26081308 
    2450   -29793.996   -26573.329    105.60071   0.30982548 
    2460   -29793.716   -26571.979    101.64073   0.29785021 
    2470   -29793.442   -26571.193    112.71339   0.31061679 
    2480   -29793.157   -26570.696    100.61297   0.27302677 
    2490   -29792.898   -26570.393     104.6783   0.28548618 
    2500   -29792.639   -26568.547    93.297748   0.24634363 
    2510   -29792.402    -26567.85    98.279676   0.28537608 
    2520   -29792.156   -26568.069     90.47934   0.24249882 
    2530   -29791.914   -26568.315    101.06576   0.26938104 
    2540   -29791.651   -26566.653     105.5709   0.30635903 
    2550   -29791.364   -26566.127    119.93214   0.35604532 
    2560   -29791.062   -26567.233    123.09017   0.38266398 
    2570   -29790.748   -26567.688    129.40678   0.40125353 
    2580   -29790.436   -26566.249    133.28467   0.40431272 
    2590   -29790.121   -26565.342    131.96385   0.39769565 
    2600   -29789.822   -26565.864    130.56868   0.41259357 
    2610   -29789.527   -26564.911    129.40257   0.39500836 
    2620   -29789.239   -26562.262    134.89099   0.41228122 
    2630   -29788.943   -26559.896    135.84969   0.39382017 
    2640   -29788.659   -26559.024    135.58961   0.41957047 
    2650    -29788.38   -26558.103    131.43911   0.38889949 
    2660   -29788.116   -26556.217    129.75086   0.35234891 
    2670   -29787.859   -26553.887    120.90377   0.32301698 
    2680   -29787.627   -26552.647    118.00513   0.32572018 
    2690   -29787.393   -26551.572    114.33334   0.31003851 
    2700   -29787.169   -26550.223    119.17896    0.3329298 
    2710   -29786.928    -26548.36    116.94202   0.32704013 
    2720   -29786.698   -26547.376    123.42344   0.35014843 
    2730   -29786.453   -26546.752    120.31946   0.34379623 
    2740   -29786.222   -26546.971     125.5701    0.3659021 
    2750   -29785.977   -26546.851    119.06278   0.34385433 
    2760   -29785.751   -26546.002    124.94801   0.34997482 
    2770   -29785.506   -26544.683    126.12169   0.38545404 
    2780   -29785.266   -26545.191    137.69496   0.44082288 
    2790   -29785.002   -26544.921    137.15475   0.37281503 
    2800    -29784.75   -26543.664     149.2906   0.40567983 
    2810    -29784.48   -26543.001    145.59853   0.41031926 
    2820   -29784.237   -26545.107    149.01966   0.41511139 
    2830   -29783.989   -26545.552    135.17965   0.39151876 
    2840   -29783.777   -26543.532    135.68741   0.40149332 
    2850   -29783.555   -26542.085       125.61   0.36959148 
    2860   -29783.357   -26543.561      131.772   0.40113471 
    2870   -29783.145   -26542.388    123.74197   0.35572031 
    2880   -29782.952     -26539.2    131.71478   0.41118299 
    2890   -29782.741   -26537.746    124.82995   0.39512008 
    2900   -29782.549   -26539.637    126.79623   0.40022859 
    2910   -29782.354   -26538.666    112.80243   0.37167463 
    2920    -29782.18   -26535.111    113.57163   0.36055447 
    2930       -29782   -26534.055    110.63699   0.35772892 
    2940   -29781.814    -26535.63    117.17416   0.34827564 
    2950    -29781.62   -26535.894    125.06433   0.40477128 
    2960   -29781.408   -26534.749    134.24167   0.41988724 
    2970   -29781.188   -26536.099    145.82593    0.4575244 
    2980   -29780.952   -26539.084    149.33168   0.44092328 
    2990   -29780.726   -26540.189    151.63954   0.43508092 
    3000   -29780.507     -26539.9    149.06754   0.39404406 
    3010   -29780.294   -26541.175    144.28934   0.39535514 
    3020     -29780.1   -26542.295    148.14183   0.39165276 
    3030   -29779.894   -26541.301    139.76258   0.36462031 
    3040   -29779.717   -26540.943    148.66937   0.45312594 
    3050    -29779.52   -26541.459    136.94265   0.42946292 
    3060    -29779.35   -26543.638    150.04146   0.51673853 
    3070   -29779.161   -26543.777    137.31318   0.42319498 
    3080       -29779   -26544.125     138.9131   0.45571676 
    3090   -29778.838   -26543.175    128.80917   0.42347257 
    3100   -29778.683   -26542.292    133.22898   0.44313753 
    3110   -29778.529   -26541.873    132.58016   0.43160984 
    3120   -29778.367    -26542.92    134.60957   0.43146669 
    3130   -29778.212   -26544.644    144.49556   0.50223344 
    3140   -29778.044   -26546.665    151.59119   0.52551912 
    3150   -29777.879   -26549.554    155.57988   0.49136441 
    3160   -29777.715   -26551.626    156.32956   0.44020096 
    3170   -29777.555   -26551.788    161.71354   0.47540528 
    3180   -29777.404   -26551.483    169.60634   0.51847163 
    3190   -29777.255   -26551.621    171.54508   0.52146063 
    3200   -29777.119   -26551.622    169.95965   0.51501289 
    3210   -29776.997   -26551.459    169.19889    0.5060351 
    3220   -29776.886   -26552.659    164.28463   0.45817248 
    3230   -29776.794   -26554.133    159.54116   0.44080032 
    3240   -29776.706   -26553.238    152.09659   0.39584758 
    3250   -29776.633   -26552.312    157.14475   0.46110182 
    3260   -29776.556   -26552.468    162.53601   0.46435942 
    3270   -29776.489   -26553.454    170.28834   0.54011154 
    3280    -29776.43   -26553.709    173.17857   0.51709088 
    3290   -29776.382   -26554.885    173.02762   0.51054269 
    3300   -29776.353   -26557.147    173.76125   0.57775371 
    3310   -29776.325    -26556.45    159.17273     0.506649 
    3320   -29776.322   -26554.061    155.31977   0.46556037 
    3330   -29776.308   -26551.948    144.25514   0.41366376 
    3340   -29776.314   -26551.182    145.48545   0.52051185 
    3350   -29776.311   -26549.164    140.87295   0.42887284 
    3360   -29776.323   -26547.664    145.78065   0.40701497 
    3370   -29776.335   -26549.385    155.39039   0.45809033 
    3380   -29776.347   -26552.419    157.10466   0.44858588 
    3390    -29776.38   -26553.234    168.82392   0.52946608 
    3400   -29776.405   -26551.109    162.27272   0.52127795 
    3410   -29776.467    -26549.78    174.57443   0.53662541 
    3420   -29776.508   -26547.818    159.70901   0.49005359 
    3430   -29776.595   -26547.011    175.40891   0.51402468 
    3440    -29776.66   -26547.737    166.26062   0.48686553 
    3450   -29776.768   -26551.162    180.25302   0.57969938 
    3460   -29776.869   -26553.244    176.71091   0.55862238 
    3470   -29777.006   -26553.825    182.43564   0.59090459 
    3480   -29777.147   -26552.323    180.66458   0.55832538 
    3490   -29777.302   -26549.334    176.45643   0.49731587 
    3500   -29777.477   -26546.049    176.90067   0.58811189 
    3510   -29777.652   -26544.153    168.37198   0.55751694 
    3520   -29777.844   -26545.245    166.34943   0.53582533 
    3530    -29778.02   -26545.251    151.99209   0.51429113 
    3540   -29778.205   -26542.863    145.21619   0.50452406 
    3550   -29778.366   -26539.868    129.63383    0.4185245 
    3560   -29778.529    -26538.62    129.63997   0.44064666 
    3570   -29778.676   -26536.499    127.30337   0.43693057 
    3580   -29778.844   -26534.883    138.27804   0.48785853 
    3590   -29779.004   -26537.817    141.96193   0.47275479 
    3600   -29779.194   -26544.364    152.96564    0.5120022 
    3610   -29779.381   -26547.838    154.29987   0.53880055 
    3620   -29779.584   -26547.312    150.29219   0.45825752 
    3630   -29779.775   -26546.292    144.12429   0.44262147 
    3640   -29779.958   -26543.966     132.1151   0.42339498 
    3650    -29780.14   -26539.079    131.14983   0.45083321 
    3660   -29780.291   -26534.789    114.55034   0.35066467 
    3670    -29780.45    -26536.97    120.35882   0.40010617 
    3680   -29780.595    -26541.06    121.25147   0.41634931 
    3690   -29780.763   -26543.356    131.57757   0.55245219 
    3700   -29780.923   -26544.227    133.51276    0.5386882 
    3710   -29781.084   -26544.897    131.93037   0.50840184 
    3720   -29781.259   -26544.481    142.02172   0.60614732 
    3730   -29781.424   -26542.237    135.18623   0.54429818 
    3740   -29781.611   -26542.327    141.37107   0.53339114 
    3750   -29781.767   -26543.518    130.41606   0.46198199 
    3760   -29781.952   -26546.079    138.78492   0.48990888 
    3770    -29782.11   -26547.863    130.53149   0.43597428 
    3780    -29782.28   -26548.476    127.16047   0.41336711 
    3790   -29782.433   -26546.493     126.4209   0.42744856 
    3800   -29782.591    -26544.24    124.32374   0.42532313 
    3810   -29782.753   -26545.044    132.39862    0.4512654 
    3820   -29782.897   -26546.217    123.79483   0.39873595 
    3830   -29783.066    -26547.94    138.73679   0.52407115 
    3840    -29783.22   -26550.482    133.06805   0.48889306 
    3850   -29783.396   -26553.593    138.91544   0.47770463 
    3860   -29783.544   -26552.131    125.42524   0.42871264 
    3870   -29783.707   -26548.603    130.07191   0.43531466 
    3880   -29783.852   -26547.039    124.39843   0.43581092 
    3890   -29784.003   -26548.633    124.55167   0.43241967 
    3900   -29784.147   -26549.405    126.65168   0.40514524 
    3910   -29784.298    -26550.27    133.29978   0.44473522 
    3920    -29784.46    -26554.71    140.76338   0.50117964 
    3930   -29784.617   -26558.308     136.8903   0.44697579 
    3940   -29784.785    -26557.42    138.58003   0.46071904 
    3950   -29784.942   -26554.395    133.25875   0.41370715 
    3960   -29785.108   -26554.468    134.15453   0.42627852 
    3970   -29785.254    -26556.04    125.78608   0.42169158 
    3980   -29785.411   -26556.858    130.92808   0.43410514 
    3990   -29785.561   -26558.567    132.40803   0.47405348 
    4000   -29785.725   -26561.679    140.32786   0.46110022 
    4010   -29785.884   -26562.606    140.98923   0.47223752 
    4020   -29786.058   -26560.161    145.32972   0.54460793 
    4030   -29786.226    -26556.76     138.9569   0.44867718 
    4040   -29786.402   -26556.242    138.90943   0.50808634 
    4050   -29786.558   -26556.045    127.94743   0.48671223 
    4060   -29786.725   -26556.605    131.64393   0.50212869 
    4070    -29786.87   -26558.458    124.64515   0.46942162 
    4080   -29787.034   -26560.592    131.02181   0.43622452 
    4090   -29787.179   -26560.297    127.84319   0.43601108 
    4100   -29787.342   -26559.164    131.60636   0.43583837 
    4110   -29787.493   -26558.348     130.0129   0.39105207 
    4120   -29787.642   -26557.548    123.90355   0.39687553 
    4130   -29787.795   -26557.589    127.88105   0.42563796 
    4140   -29787.925   -26559.252    118.46953   0.37584668 
    4150   -29788.075   -26562.248    128.48423   0.45025835 
    4160   -29788.206   -26562.648    126.45619    0.4031095 
    4170   -29788.366   -26561.671    138.32812    0.5170295 
    4180   -29788.512   -26560.046    138.19485   0.45824712 
    4190   -29788.669   -26558.927    138.55412   0.42677078 
    4200   -29788.832   -26557.072    142.14511   0.50474091 
    4210   -29788.991   -26555.967    137.75067   0.45479091 
    4220    -29789.16   -26557.676    142.16435   0.49544318 
    4230    -29789.31   -26558.359    129.90656   0.48013864 
    4240   -29789.473    -26557.71    133.56496   0.45694184 
    4250   -29789.615   -26556.329    123.94197    0.4300928 
    4260   -29789.768   -26556.546    128.03633   0.42358284 
    4270   -29789.907   -26555.862    125.69488   0.41324047 
    4280   -29790.058   -26555.438    132.42828   0.48327591 
    4290   -29790.207   -26557.018    134.93467   0.53281719 
    4300   -29790.361   -26559.496     134.5693   0.51441744 
    4310   -29790.518   -26560.325     137.0133   0.48285155 
    4320   -29790.666   -26559.429    129.13799    0.4376584 
    4330   -29790.824   -26558.722    132.64445   0.46892189 
    4340   -29790.954   -26556.636    118.78392   0.39679182 
    4350   -29791.108   -26554.707    130.96821    0.3970788 
    4360   -29791.231   -26553.545    119.63104   0.41869441 
    4370   -29791.387   -26555.221    133.58742   0.52494554 
    4380   -29791.508   -26554.721    119.50186   0.39802604 
    4390   -29791.655   -26552.824    125.12325   0.42100294 
    4400   -29791.768   -26550.299     110.9644   0.40803724 
    4410   -29791.885   -26549.145    107.03492   0.39295935 
    4420   -29791.983   -26547.152    102.11721   0.34807955 
    4430   -29792.078   -26545.224    102.75514   0.35069856 
    4440   -29792.174   -26546.704    109.64786   0.40091673 
    4450   -29792.265   -26549.584     116.7311    0.3810294 
    4460   -29792.368   -26550.912    127.62036   0.45039698 
    4470   -29792.471   -26550.604    133.36775   0.51205424 
    4480   -29792.583   -26550.237    134.76128   0.48905722 
    4490   -29792.689   -26549.472     130.6294   0.43169389 
    4500   -29792.795   -26547.074     124.9385   0.38182142 
    4510   -29792.894   -26544.813    119.28253   0.43332393 
    4520   -29792.985   -26544.855     112.9809   0.45280501 
    4530   -29793.072   -26545.927    114.97772   0.38910255 
    4540   -29793.154   -26545.806    113.80212   0.42373465 
    4550   -29793.241   -26545.608    120.73873   0.44578684 
    4560   -29793.317   -26545.636    115.98801   0.40624924 
    4570   -29793.401   -26545.337     120.2974   0.49537775 
    4580    -29793.47   -26543.625    113.37184   0.45133896 
    4590   -29793.549   -26543.864     119.2528    0.4043366 
    4600   -29793.608   -26544.997    111.91441    0.3338931 
    4610   -29793.683   -26546.526    123.16202   0.46437175 
    4620   -29793.746   -26547.341    123.17977   0.45815662 
    4630   -29793.818   -26548.433    126.77688   0.46456136 
    4640   -29793.881   -26548.794    121.35211   0.46232002 
    4650   -29793.942   -26547.904    115.01623   0.47432483 
    4660   -29794.003   -26546.989    111.13131   0.40482999 
    4670   -29794.045   -26546.543    100.23927    0.3458136 
    4680   -29794.092   -26547.183     99.82099    0.4000327 
    4690   -29794.123   -26547.953    96.904776   0.36349632 
    4700    -29794.16   -26549.584    106.14345   0.40152263 
    4710   -29794.184   -26551.092    107.06885   0.40886542 
    4720   -29794.215   -26552.951    114.36673   0.47447918 
    4730   -29794.236   -26554.076    116.16874   0.42618733 
    4740   -29794.257   -26555.385     119.7664    0.4595235 
    4750   -29794.276   -26555.299    117.98329   0.44427788 
    4760   -29794.292   -26554.191     114.4079   0.43853901 
    4770   -29794.311   -26553.776    114.00057   0.44296767 
    4780   -29794.314     -26553.6    108.62845   0.40475078 
    4790   -29794.328   -26553.551    116.62536   0.46018345 
    4800   -29794.322    -26553.48    112.18038   0.38285248 
    4810   -29794.335   -26555.917    126.47244   0.44039079 
    4820   -29794.322   -26557.602    120.67266    0.4326858 
    4830   -29794.333   -26557.899    132.55214   0.46542981 
    4840   -29794.321   -26557.592     123.3794   0.41537922 
    4850   -29794.325   -26559.575     128.1703   0.43205292 
    4860   -29794.317   -26561.682    125.07884   0.40759215 
    4870   -29794.317   -26563.087    132.81533   0.45345331 
    4880   -29794.311   -26564.083    132.74183   0.48347289 
    4890   -29794.307   -26565.925     134.2181   0.49210873 
    4900   -29794.306   -26566.311    132.42237    0.5322378 
    4910   -29794.303    -26564.62    131.07288   0.45556735 
    4920   -29794.302   -26563.581    126.46367   0.45215752 
    4930   -29794.301     -26563.8    121.34381   0.45291105 
    4940   -29794.295     -26563.5    118.19467   0.40381799 
    4950   -29794.291   -26563.062    120.56844   0.41142129 
    4960   -29794.281    -26564.62    120.90029   0.47922132 
    4970   -29794.269   -26566.752    120.81827   0.45966341 
    4980   -29794.262   -26566.569    125.15853   0.48480274 
    4990   -29794.245   -26565.322    124.57436    0.4723966 
    5000   -29794.234   -26565.436    128.36224   0.51723839 
    5010   -29794.215    -26565.12    126.41863    0.4664169 
    5020   -29794.201    -26563.69     127.6814   0.51904782 
    5030   -29794.187   -26563.075    127.01028   0.48072361 
    5040   -29794.162   -26563.604     118.2577   0.42956151 
    5050   -29794.151   -26562.502    115.28374   0.49037342 
    5060   -29794.127   -26559.586    109.87846   0.43490812 
    5070   -29794.106   -26558.133    111.86442   0.40815958 
    5080   -29794.077   -26557.876    111.55183   0.46930066 
    5090   -29794.041   -26556.962     111.0988   0.41852194 
    5100   -29794.014   -26556.019    120.14854   0.44925778 
    5110   -29793.969   -26556.765    114.34849   0.53240229 
    5120   -29793.934   -26558.613    117.02283   0.50982106 
    5130   -29793.884   -26557.422    105.74896   0.48519149 
    5140   -29793.846   -26555.332    111.52227   0.54636981 
    5150   -29793.791   -26554.506    106.02064   0.48624893 
    5160    -29793.74   -26555.383    109.22083   0.44815235 
    5170    -29793.68   -26554.932    108.59777   0.42132605 
    5180   -29793.619   -26554.351    114.76807   0.49161257 
    5190   -29793.547   -26555.053    111.91665   0.56488022 
    5200    -29793.48   -26555.734    114.00056   0.50619438 
    5210   -29793.402   -26553.963    110.74196   0.52965577 
    5220   -29793.329   -26551.293    116.64068    0.6146112 
    5230   -29793.243   -26549.897    111.87411   0.41352389 
    5240   -29793.161   -26550.185     111.4022   0.42959141 
    5250   -29793.075   -26550.594    112.19917   0.43555318 
    5260   -29792.983   -26550.861    115.62643   0.47065201 
    5270   -29792.888   -26551.629     115.7916   0.52357221 
    5280   -29792.789   -26552.373    114.64902   0.53276741 
    5290   -29792.688    -26552.14    116.21236   0.50294709 
    5300   -29792.582   -26550.584    116.18666   0.56300687 
    5310   -29792.477   -26549.177    114.36946   0.58541278 
    5320   -29792.369   -26550.035    108.88164     0.530129 
    5330   -29792.264    -26551.82    107.62292    0.5248035 
    5340   -29792.154   -26551.969    105.39686   0.54187367 
    5350   -29792.046   -26551.241    102.89077   0.57411356 
    5360   -29791.932   -26551.808    100.65052    0.5433213 
    5370   -29791.815   -26552.719    102.49332   0.53412086 
    5380   -29791.693   -26551.232    104.04374   0.55763877 
    5390   -29791.565    -26549.47     103.6379   0.47974339 
    5400   -29791.432   -26551.612    106.45586   0.48196362 
    5410   -29791.289   -26555.118    109.03993   0.52874309 
    5420   -29791.145   -26556.098    119.04271    0.5644706 
    5430   -29790.981   -26554.425    116.83343   0.59486902 
    5440    -29790.82   -26554.915    122.46596   0.61703276 
    5450   -29790.653   -26555.547    123.78443   0.59646069 
    5460   -29790.481   -26553.171    121.17556   0.64123642 
    5470   -29790.325    -26550.71    121.99371   0.60794036 
    5480    -29790.15   -26551.922    114.65686   0.52612574 
    5490   -29790.002   -26555.493    125.05245   0.59303777 
    5500   -29789.819   -26555.767    119.37982   0.56943107 
    5510   -29789.658   -26555.827    131.20959   0.49887884 
    5520   -29789.472    -26556.71    124.68985   0.52828034 
    5530   -29789.304   -26557.763    131.14451    0.6531253 
    5540   -29789.131   -26556.649     128.1899   0.52807765 
    5550   -29788.959   -26556.423    124.69592   0.49582811 
    5560   -29788.795   -26559.022    127.55571   0.62192646 
    5570   -29788.619   -26560.863    124.27739   0.54055672 
    5580   -29788.459   -26561.359    133.83053   0.68592889 
    5590   -29788.284   -26560.724    128.96174   0.68807734 
    5600   -29788.193   -26559.727    134.54761   0.59508448 
    5610   -29788.022   -26557.258    133.13362       0.6676 
    5620   -29787.848   -26555.238    130.80455   0.51416303 
    5630   -29787.694   -26556.009    128.07572   0.58032539 
    5640   -29787.533   -26557.121    122.89957   0.59998356 
    5650   -29787.385   -26557.081    125.69491   0.51759563 
    5660   -29787.227   -26557.328    122.89522   0.51408382 
    5670   -29787.075    -26558.98    125.44578   0.63649567 
    5680   -29786.914   -26559.592    131.08254   0.60822357 
    5690   -29786.749   -26558.616    137.19779   0.64731865 
    5700   -29786.581   -26559.491    146.94745   0.68112751 
    5710   -29786.315   -26562.346    148.29833   0.60599208 
    5720   -29786.146   -26564.009    157.96258   0.67002674 
    5730   -29785.972   -26562.725    152.77573   0.72436613 
    5740   -29785.818   -26560.703    150.63818   0.62356498 
    5750   -29785.674   -26558.371    140.73623   0.71487872 
    5760   -29785.543   -26555.344    132.89002    0.7566858 
    5770   -29785.422   -26551.881    126.33132    0.6208168 
    5780   -29785.295    -26550.78    119.72404   0.63318943 
    5790   -29785.183   -26553.076    129.68096   0.66779518 
    5800   -29785.049   -26555.584     131.3328   0.58899002 
    5810   -29784.925    -26556.01    142.41408   0.68495863 
    5820    -29784.79   -26554.441    143.40129   0.74284886 
    5830   -29784.657   -26554.041    148.00274    0.7369898 
    5840   -29784.523    -26553.96    152.53307   0.68876398 
    5850   -29784.393   -26552.971    153.73625   0.72612421 
    5860   -29784.276   -26551.944    160.03252   0.83786174 
    5870   -29784.156   -26552.476    155.00232   0.72939604 
    5880   -29784.052   -26554.515    153.57031   0.71048092 
    5890    -29783.95   -26553.974    146.52385   0.63370188 
    5900   -29783.859   -26551.939    141.80408   0.69132889 
    5910   -29783.782   -26550.585    138.22259    0.7512745 
    5920   -29783.698   -26550.043    129.32544   0.76452468 
    5930   -29783.625   -26549.183    132.04763   0.72401203 
    5940   -29783.541   -26547.823    128.21673   0.66098525 
    5950   -29783.469   -26548.918    135.29851   0.73311781 
    5960   -29783.388   -26549.884    132.37776   0.79556053 
    5970   -29783.314   -26548.992    139.84905   0.77273258 
    5980   -29783.233   -26547.722    145.18425    0.6921857 
    5990   -29783.153   -26548.316    148.95811   0.78695345 
    6000   -29783.078   -26550.428    153.49398   0.86697745 
    6010   -29783.004   -26551.301    153.67792   0.83968757 
    6020   -29782.946     -26552.6    157.84524   0.84398426 
    6030   -29782.882    -26554.07    149.18865   0.79929978 
    6040   -29782.835   -26554.294     142.7096   0.82604471 
    6050   -29782.787   -26552.126    136.57825   0.79752874 
    6060   -29782.742    -26549.91    132.70743    0.6867995 
    6070   -29782.708   -26550.267    138.28313   0.69430232 
    6080   -29782.658   -26550.708    137.29995   0.77448197 
    6090   -29782.628   -26551.849    151.66339   0.87231578 
    6100   -29782.581   -26551.866    142.17736   0.69039469 
    6110   -29782.557   -26551.536    146.57415   0.74025374 
    6120   -29782.519   -26549.485    136.47202   0.77953929 
    6130   -29782.498   -26546.823    137.84534   0.70091925 
    6140   -29782.472   -26544.868    128.82041   0.77161796 
    6150   -29782.449   -26545.291    130.54486   0.76105928 
    6160   -29782.426   -26547.305    137.74332   0.71721195 
    6170   -29782.399   -26550.224    140.42487   0.75017921 
    6180   -29782.381   -26552.628     150.2234   0.88220532 
    6190   -29782.355   -26552.438    145.16442   0.75004685 
    6200   -29782.358   -26552.067    155.56121   0.80412373 
    6210   -29782.339   -26550.699    140.14131   0.78906717 
    6220   -29782.339   -26549.887     136.8785   0.76876847 
    6230   -29782.333   -26548.107    127.18118   0.83910488 
    6240   -29782.329   -26548.336    121.68509    0.7519013 
    6250   -29782.338   -26550.391    124.17807   0.89396016 
    6260   -29782.312    -26550.17    114.39885   0.63492311 
    6270    -29782.32    -26549.91    133.03999    0.7908325 
    6280   -29782.294   -26550.631    134.08256   0.82800238 
    6290   -29782.299   -26553.867    148.98112   0.92224791 
    6300   -29782.287   -26553.855    145.21352   0.82793927 
    6310   -29782.292   -26552.543    151.22582   0.99936593 
    6320   -29782.297   -26552.713    144.64682   0.91647732 
    6330   -29782.299   -26553.032    128.77024   0.71132749 
    6340   -29782.316   -26550.538    124.62156   0.85406239 
    6350   -29782.312   -26546.179    118.57585   0.80525395 
    6360   -29782.322   -26545.583    125.08419   0.85751543 
    6370   -29782.315   -26546.481    121.85193   0.79477105 
    6380   -29782.321   -26545.661    127.88399   0.86687289 
    6390   -29782.323   -26545.194    136.18362   0.93320554 
    6400   -29782.321   -26547.604    138.05802   0.89353666 
    6410   -29782.331   -26550.131    147.03028    1.0364236 
    6420   -29782.331    -26548.63    145.49315   0.89221768 
    6430   -29782.351     -26546.8    158.23009   0.73986074 
    6440   -29782.361   -26546.291    149.17577   0.74177023 
    6450   -29782.396   -26546.219    157.75574   0.85495491 
    6460   -29782.419   -26545.193    148.19436   0.92055298 
    6470   -29782.463     -26545.1    151.67686   0.98964451 
    6480   -29782.497   -26545.807    144.39663   0.89535174 
    6490   -29782.546   -26545.034    144.43749   0.81656853 
    6500   -29782.592    -26541.77    137.78425   0.97861878 
    6510   -29782.641   -26540.166    138.92855   0.97852384 
    6520   -29782.687   -26540.741    141.17128   0.84141359 
    6530   -29782.748   -26542.563    151.13905   0.86021761 
    6540   -29782.808   -26544.306    157.20335   0.88673496 
    6550   -29782.885   -26546.179    159.30442    1.0814047 
    6560   -29782.965   -26547.611    157.09658   0.93882319 
    6570   -29783.057   -26546.843    153.31151   0.86397829 
    6580   -29783.148   -26544.973    149.00017   0.94591284 
    6590   -29783.238   -26543.156    140.22994   0.94891874 
    6600   -29783.328   -26542.647    133.54325   0.89747414 
    6610   -29783.418   -26544.607    132.88275   0.96537292 
    6620   -29783.509   -26547.438    135.85165   0.89607296 
    6630   -29783.605   -26550.316    141.99034   0.98809916 
    6640   -29783.706   -26552.223    146.50346    1.0082463 
    6650   -29783.811   -26552.783    149.25712    1.0553612 
    6660   -29783.924   -26551.333    148.82302    1.2103538 
    6670   -29784.044   -26548.646    143.18488   0.98459582 
    6680   -29784.162   -26546.781    132.92549    1.0198956 
    6690   -29784.256   -26545.532    119.56265   0.83597353 
    6700   -29784.352   -26545.037    112.53329    0.9120935 
    6710   -29784.435   -26545.597    108.59468   0.75670843 
    6720   -29784.516     -26546.5    108.54641   0.86481037 
    6730   -29784.598   -26546.937    114.54934    1.0019342 
    6740   -29784.672    -26546.31    118.69047   0.83264772 
    6750   -29784.754   -26546.849    129.23479   0.90572162 
    6760   -29784.833    -26548.32    128.79642    1.0087476 
    6770   -29784.929   -26550.082    138.53528    1.0821414 
    6780   -29785.022   -26551.743    142.91256    1.0434597 
    6790   -29785.119   -26553.594    145.85715    1.0728648 
    6800   -29785.218   -26554.116    142.13574    0.9498158 
    6810   -29785.319   -26551.917    139.32222   0.88031059 
    6820   -29785.433   -26548.756    137.38305    1.1160998 
    6830    -29785.53   -26547.113    128.88438    1.0432072 
    6840   -29785.628   -26547.247    122.00626     1.040351 
    6850   -29785.711   -26547.076    121.58167   0.98739466 
    6860   -29785.794   -26547.405    122.74837   0.85596966 
    6870   -29785.891   -26549.837    128.85821   0.93906305 
    6880   -29785.981   -26552.314     127.8333    1.0787264 
    6890   -29786.084   -26552.287    138.62114    1.2511757 
    6900   -29786.178   -26550.479    138.29794    1.1337562 
    6910   -29786.279   -26550.978    135.77991    1.0990902 
    6920   -29786.371   -26552.262    125.19864   0.93455574 
    6930   -29786.468   -26551.406    124.58612   0.89260157 
    6940   -29786.557   -26549.274    117.78727   0.98728298 
    6950   -29786.639   -26549.532    116.71406   0.90081409 
    6960   -29786.706    -26550.11    113.90516   0.98397405 
    6970   -29786.789   -26548.877    123.98299   0.99849156 
    6980   -29786.875   -26547.549    130.52583    1.0393101 
    6990    -29786.96   -26549.312    138.61409   0.98557085 
    7000    -29787.05    -26551.25    139.98958    1.1435591 
    7010    -29787.15   -26551.434    144.28864    1.1428216 
    7020    -29787.25    -26550.25    143.37667    1.0899899 
    7030   -29787.345   -26549.846    134.79307    1.0328648 
    7040   -29787.448   -26549.736    134.46757    1.0973082 
    7050   -29787.537   -26548.591    131.09844    1.1545836 
    7060   -29787.644   -26549.194    142.88248    1.0643929 
    7070   -29787.739   -26550.859    139.12914   0.97656462 
    7080   -29787.867    -26552.47    146.92087    1.0662485 
    7090    -29787.97   -26552.337    137.87318     1.084489 
    7100   -29788.085   -26552.138     137.4575   0.98906036 
    7110   -29788.182   -26551.589    124.00603    1.0653424 
    7120   -29788.288   -26551.112    120.25034    1.0195151 
    7130   -29788.391   -26551.561    120.60737    1.1385448 
    7140    -29788.48   -26553.277     124.5447    1.0947387 
    7150   -29788.578   -26555.447    135.01221    1.0791891 
    7160   -29788.678   -26557.024    141.23776     1.099782 
    7170   -29788.798   -26558.776    151.57993    1.2056743 
    7180    -29788.92   -26559.604    149.74455    1.1210435 
    7190   -29789.054   -26557.891    144.59422    1.2222035 
    7200   -29789.175   -26554.414    134.98504    1.2653655 
    7210   -29789.279   -26552.247    118.45628    1.1144723 
    7220   -29789.388   -26552.693    113.93228    1.0731075 
    7230   -29789.471   -26552.302     103.5216   0.91298596 
    7240   -29789.571   -26552.501    117.25739    1.0230655 
    7250   -29789.649   -26554.259    119.84286    1.1373216 
    7260   -29789.748   -26556.937      130.806   0.96781979 
    7270   -29789.835   -26556.492    128.57189    1.1988145 
    7280   -29789.944   -26555.012     130.9991    1.2438752 
    7290   -29790.036   -26555.193    125.55666    1.0296605 
    7300   -29790.118   -26556.377    117.84732    1.0572933 
    7310   -29790.201   -26555.484    115.31154    1.2684123 
    7320   -29790.277   -26554.065    114.38608    1.1452654 
    7330   -29790.356   -26555.678    120.22406    1.0304445 
    7340   -29790.435   -26557.557    124.54656    1.1464096 
    7350   -29790.511   -26557.152    130.73721    1.3319389 
    7360   -29790.595   -26556.442    139.31221    1.1040018 
    7370   -29790.681   -26557.053    137.06886    1.0566173 
    7380   -29790.774   -26557.753    135.21076    1.0897644 
    7390   -29790.864   -26556.993    132.79401    1.0196189 
    7400    -29790.95   -26556.967    135.40107   0.92855132 
    7410    -29791.04   -26558.651    140.43494    1.1073724 
    7420   -29791.142   -26560.591    143.22261    1.2822504 
    7430   -29791.247   -26561.497    144.23973    1.4475058 
    7440    -29791.35   -26561.119    136.63385    1.3749769 
    7450   -29791.449   -26560.996    126.07514    1.2196969 
    7460   -29791.535   -26561.654    121.52452   0.96575838 
    7470   -29791.615   -26562.499    117.75706   0.93421219 
    7480   -29791.715   -26562.049    123.09583    1.2651218 
    7490   -29791.788   -26559.687    120.96121   0.98268898 
    7500   -29791.881   -26559.097    125.90273    1.0320868 
    7510   -29791.957   -26559.905    119.84405      1.12423 
    7520   -29792.038   -26559.972    120.05549   0.99278687 
    7530   -29792.107   -26558.959    118.64466    1.0208659 
    7540   -29792.188   -26559.495    117.09916    1.0370097 
    7550   -29792.264   -26560.682    115.98519    1.1587538 
    7560   -29792.315   -26558.946    110.14222   0.99791398 
    7570   -29792.381   -26556.245    116.46716   0.92938365 
    7580   -29792.436   -26555.445    109.59418    1.2886688 
    7590   -29792.486   -26556.642    110.65429    1.0897199 
    7600   -29792.535   -26555.537    108.15286    1.1473232 
    7610   -29792.587   -26553.219    111.46902    1.0850593 
    7620    -29792.63   -26553.327    110.31366    1.0135677 
    7630   -29792.659    -26555.18    110.03043   0.97354563 
    7640   -29792.689   -26555.505    116.74707    1.0641127 
    7650   -29792.731   -26555.143    122.89472    1.2781209 
    7660   -29792.771   -26556.185    126.38086    1.3427381 
    7670   -29792.807   -26557.257    122.90078    1.2660736 
    7680   -29792.833   -26556.988    121.45653    1.1017339 
    7690   -29792.865   -26556.197    118.46595    1.1738108 
    7700    -29792.89   -26555.877    112.66262    1.0251297 
    7710   -29792.914   -26555.401     106.9171    1.0513066 
    7720   -29792.928   -26555.065    101.04113    1.0734001 
    7730   -29792.943   -26555.511    103.96077    1.1364832 
    7740   -29792.947   -26556.217    106.10629    1.0922484 
    7750   -29792.958   -26556.471    111.49016    1.1704372 
    7760   -29792.959   -26556.742    110.69085    1.0941275 
    7770   -29792.956   -26557.768    120.01843    1.1917946 
    7780   -29792.939   -26556.901    121.55814   0.95487899 
    7790   -29792.945   -26555.835    127.66247    1.1695679 
    7800   -29792.926   -26556.221    122.11749   0.93108619 
    7810   -29792.918   -26557.625    124.07323   0.96231887 
    7820   -29792.909   -26556.996    123.17704    1.2173623 
    7830   -29792.891   -26555.483     115.6482    1.0626218 
    7840    -29792.89   -26556.334    114.56228    1.1445146 
    7850    -29792.86   -26557.309    107.60687    1.0529596 
    7860    -29792.85   -26556.288    110.26139    1.0966349 
    7870    -29792.81   -26554.498    100.20547   0.94650555 
    7880   -29792.791   -26555.546    103.79338    1.1233081 
    7890   -29792.756   -26557.515    103.75187    1.0598513 
    7900    -29792.72   -26557.828    111.33394    1.0341238 
    7910   -29792.675   -26558.307      113.569    1.3636798 
    7920   -29792.619   -26560.373    121.09065    1.0269955 
    7930   -29792.568   -26561.679    125.96332    1.1612099 
    7940   -29792.509    -26560.37    127.04063    1.2462051 
    7950   -29792.445   -26558.357    122.59277    1.0123987 
    7960   -29792.385    -26558.63    124.08979    1.0584638 
    7970   -29792.323   -26559.492    127.08814    1.3020642 
    7980   -29792.262   -26559.773    127.31464    1.2661146 
    7990   -29792.191    -26559.95     129.5457    1.0003587 
    8000   -29792.119   -26559.751    126.57496   0.99883326 
    8010   -29792.059   -26559.883    134.80011    1.1645812 
    8020   -29791.982    -26558.99     125.7669    1.1595119 
    8030   -29791.921   -26558.658    127.93058     1.054835 
    8040   -29791.855   -26558.881    121.70679    1.1238664 
    8050   -29791.787   -26559.987    129.59844    1.1028598 
    8060   -29791.709   -26560.617    126.79764    1.2766834 
    8070   -29791.632   -26560.215    127.13227     1.054486 
    8080    -29791.56   -26559.147    130.44694    1.0232271 
    8090   -29791.488   -26557.031    128.33285    1.0281851 
    8100   -29791.415   -26555.157     123.1093     1.074233 
    8110   -29791.341   -26553.933    118.44009    1.2435121 
    8120   -29791.264    -26552.44    115.82727    1.0816359 
    8130   -29791.193   -26551.101    114.96985    1.1396349 
    8140   -29791.117   -26549.761    106.61639    1.1808466 
    8150   -29791.044   -26549.003     108.7124    1.1092385 
    8160   -29790.955   -26548.144    112.21098   0.97522382 
    8170   -29790.865    -26548.28    118.70307    1.0213323 
    8180   -29790.765   -26549.751    121.12033   0.95071276 
    8190   -29790.666   -26551.359    126.84806   0.96910134 
    8200   -29790.562   -26552.122    133.60678    1.0537299 
    8210   -29790.445   -26552.486    130.54647    1.0331653 
    8220   -29790.339   -26553.641    127.94985    1.0838595 
    8230   -29790.228   -26553.905    124.52475   0.96279069 
    8240   -29790.127   -26552.878    124.07254   0.87858263 
    8250   -29790.024    -26552.45    122.09896    1.1374003 
    8260   -29789.916   -26553.518    123.55478    1.1388605 
    8270   -29789.805   -26554.712    132.02338    1.1167279 
    8280   -29789.685   -26555.058     138.0987    1.3199123 
    8290   -29789.562   -26554.101    142.45909    1.2077491 
    8300   -29789.438   -26552.625    137.00805    1.0770613 
    8310   -29789.336   -26551.071    138.59076    1.0459292 
    8320   -29789.222   -26548.457    132.89865    1.0522122 
    8330   -29789.116   -26545.984    132.07886    0.9710818 
    8340   -29789.009   -26545.159    124.02322   0.92845087 
    8350   -29788.917   -26546.707    130.47272    1.1665916 
    8360   -29788.809   -26548.095    129.45139    1.0856891 
    8370   -29788.707   -26548.428    135.16524   0.92577987 
    8380     -29788.6   -26548.816    137.41575    1.0483924 
    8390   -29788.491   -26549.594    139.81374   0.99425505 
    8400   -29788.391   -26549.616    136.13519    1.1685478 
    8410   -29788.296   -26547.744    131.91585    1.0817418 
    8420   -29788.196   -26546.168    125.39985   0.98124988 
    8430   -29788.112   -26547.029    123.35477    1.1166674 
    8440   -29788.018   -26547.399    111.77192   0.99358344 
    8450   -29787.938   -26545.885    116.24528   0.88790763 
    8460   -29787.836    -26544.68    111.65389   0.83135594 
    8470   -29787.757   -26547.181    128.69409    1.0030039 
    8480   -29787.639    -26548.77    117.11842      1.09804 
    8490   -29787.549   -26549.472    134.63416    1.1361411 
    8500   -29787.427   -26549.352    133.66316    1.1051346 
    8510   -29787.324   -26551.751    145.08375    1.1589206 
    8520   -29787.214   -26552.871    137.15986    1.1553708 
    8530   -29787.108   -26551.221    139.00225   0.99598547 
    8540   -29787.004   -26549.801    138.77103    1.0266841 
    8550   -29786.903   -26551.028     140.4048   0.97872784 
    8560    -29786.81   -26552.036     136.0825   0.99204292 
    8570   -29786.722   -26551.399    136.50196   0.87158273 
    8580    -29786.62   -26550.788    137.94922   0.91503298 
    8590   -29786.537   -26552.189    145.97032    1.0776234 
    8600   -29786.438    -26552.84    139.58384     0.917145 
    8610   -29786.367   -26552.362    144.08059     1.184457 
    8620   -29786.275   -26552.143    141.55956    1.0327238 
    8630     -29786.2   -26552.537     142.9073    1.0523578 
    8640    -29786.12   -26552.552     135.9936   0.97824834 
    8650   -29786.053   -26552.336    134.36475   0.89919049 
    8660   -29785.987   -26552.609        137.8   0.96706042 
    8670   -29785.922   -26552.431    135.01874   0.99178049 
    8680   -29785.857   -26551.819    136.96128   0.99612872 
    8690   -29785.789   -26551.105     136.3397    1.2040282 
    8700   -29785.729   -26550.479    139.19219    1.0224947 
    8710   -29785.673   -26549.573    135.85471    1.0505234 
    8720   -29785.616   -26549.718    133.76786    1.1274339 
    8730   -29785.562   -26551.215    136.35405    1.0326798 
    8740   -29785.497    -26552.27    135.21843   0.99319908 
    8750   -29785.447   -26552.383    134.94785    1.0192516 
    8760   -29785.393   -26552.599    133.55604   0.97308452 
    8770   -29785.346   -26553.481    142.73875    1.0121225 
    8780   -29785.294   -26553.059    138.76434    1.0074186 
    8790   -29785.247   -26552.292    139.41921   0.95707635 
    8800   -29785.191   -26551.673    131.61215   0.93616154 
    8810   -29785.157   -26552.738    141.75142   0.99413827 
    8820   -29785.108   -26551.834    129.66743   0.89544916 
    8830   -29785.079   -26550.371    130.15487    1.0713671 
    8840   -29785.026   -26549.691    121.29103   0.89726317 
    8850   -29784.993   -26550.651    130.87264   0.96502527 
    8860   -29784.946   -26551.426    128.79621    1.1085154 
    8870   -29784.907   -26551.563     131.4023    1.0626042 
    8880   -29784.868   -26552.258    133.50242   0.97750945 
    8890   -29784.822   -26553.029    138.20363   0.97056717 
    8900   -29784.773   -26551.563    128.04257    1.0568607 
    8910   -29784.737    -26549.22    128.07833   0.94316417 
    8920   -29784.692   -26547.618    118.75406   0.88584933 
    8930   -29784.662   -26548.156    130.28427    1.0041742 
    8940   -29784.605   -26547.488    117.30423   0.97027832 
    8950   -29784.571   -26547.692    135.36368   0.85124218 
    8960   -29784.505   -26548.801    130.54173   0.89775222 
    8970   -29784.472   -26550.752    147.02627   0.93793384 
    8980   -29784.413   -26550.188    141.46368   0.87410059 
    8990   -29784.372   -26549.085    151.79862     1.057909 
    9000   -29784.321   -26548.123    151.01103    1.0276777 
    9010   -29784.285   -26547.069    151.51897    1.0253871 
    9020    -29784.25   -26545.258    142.72247   0.87253293 
    9030   -29784.223   -26544.688    141.17661   0.92251302 
    9040   -29784.191   -26544.822     135.3006    1.0233045 
    9050   -29784.168   -26544.949     132.5038   0.97626903 
    9060   -29784.146   -26544.672    124.60625     1.051193 
    9070   -29784.126   -26545.362    130.10391   0.94272645 
    9080   -29784.099   -26546.527    127.18962   0.82357323 
    9090   -29784.072   -26546.723    127.47549   0.95310822 
    9100   -29784.042   -26546.566    122.57531   0.88115147 
    9110   -29784.014   -26547.636    123.85857   0.83756817 
    9120   -29783.985   -26549.203    129.18828   0.98599919 
    9130   -29783.944    -26550.34    130.25424    1.0014956 
    9140   -29783.915   -26550.873    135.82965   0.96085546 
    9150   -29783.876   -26551.342     139.2059   0.96138717 
    9160   -29783.845    -26551.98    145.27245    1.0138292 
    9170   -29783.808   -26551.583    147.96658   0.90822867 
    9180   -29783.774   -26550.047    143.60326   0.88378583 
    9190   -29783.753   -26548.868     139.6543   0.92944529 
    9200   -29783.727   -26549.453    133.87367    1.0038086 
    9210   -29783.707   -26550.514    137.00429   0.85837728 
    9220   -29783.683   -26550.987    136.99877    1.0173242 
    9230   -29783.663   -26552.779    145.56477   0.87574162 
    9240   -29783.641   -26555.635    149.64312   0.84085712 
    9250    -29783.63   -26556.567    154.66136   0.93733008 
    9260   -29783.619   -26555.269     152.0927   0.85262636 
    9270   -29783.617   -26555.105    149.19058   0.91894419 
    9280   -29783.612   -26556.446    143.88712   0.94533171 
    9290   -29783.621   -26556.725    145.97654   0.88669809 
    9300   -29783.622   -26555.919    140.67456    0.9026937 
    9310   -29783.638   -26556.158    138.06612   0.80586483 
    9320   -29783.652   -26557.316     128.6687   0.94520402 
    9330    -29783.66   -26556.594    121.90209   0.85368615 
    9340    -29783.67   -26553.973    118.09805   0.91474397 
    9350   -29783.677   -26553.165    116.01393   0.95730523 
    9360   -29783.683   -26554.623    121.40568   0.91235843 
    9370   -29783.687   -26556.048    132.13281   0.94328162 
    9380   -29783.696   -26556.021    144.29182   0.92636857 
    9390   -29783.704   -26555.996    149.32297    0.8948056 
    9400   -29783.713   -26556.832    150.64024   0.92420513 
    9410   -29783.736   -26555.782    151.36185   0.96160566 
    9420   -29783.763   -26551.518    145.14322   0.90804253 
    9430   -29783.795    -26548.15    140.35189   0.91165929 
    9440   -29783.828   -26547.608    140.03888   0.83046691 
    9450   -29783.865   -26547.003    144.77002   0.86126565 
    9460   -29783.908   -26545.798    146.67288   0.92601115 
    9470   -29783.963   -26546.767    154.00136   0.91228818 
    9480   -29784.024    -26548.62    154.95962   0.97817853 
    9490   -29784.108   -26549.324    163.27407    1.0314253 
    9500   -29784.177   -26547.931    146.83836   0.94543082 
    9510   -29784.279   -26547.243    150.25249   0.84247121 
    9520   -29784.361   -26546.258    138.26818   0.78804991 
    9530   -29784.479   -26546.854    145.89525   0.95070634 
    9540   -29784.567   -26547.319    133.87911   0.89565794 
    9550   -29784.682   -26547.696    138.21604   0.78849755 
    9560   -29784.801   -26547.646     143.3744      1.04581 
    9570   -29784.931   -26547.202    142.87634    1.0152259 
    9580   -29785.069   -26546.777    139.00099   0.98089832 
    9590   -29785.193   -26544.448    126.89434    1.0172599 
    9600   -29785.334   -26542.565    129.60688   0.96331167 
    9610   -29785.472   -26542.599    121.24958   0.88253445 
    9620   -29785.591   -26542.703    108.73207   0.74905639 
    9630   -29785.715   -26541.892    114.09184   0.80322831 
    9640   -29785.833   -26541.786    115.10281   0.84579903 
    9650   -29785.983   -26544.285    128.80022    0.8806842 
    9660    -29786.11    -26545.27    124.41968   0.78751822 
    9670   -29786.265   -26545.281    138.82785   0.82688334 
    9680   -29786.427   -26546.861    146.75789   0.96903089 
    9690   -29786.614   -26550.488    144.96737   0.93322044 
    9700   -29786.788   -26552.111    137.34613    1.0420294 
    9710   -29786.962   -26551.241    131.03732   0.98209464 
    9720   -29787.139   -26551.693    132.12003   0.82995592 
    9730   -29787.305   -26552.914    119.41767   0.79152247 
    9740   -29787.457   -26552.663     113.3745    0.8908047 
    9750    -29787.61   -26551.672    118.93147    0.8986915 
    9760   -29787.769   -26553.154    127.03354   0.81368214 
    9770   -29787.932   -26555.879    125.57558   0.84850146 
    9780   -29788.094   -26556.529    128.86025   0.83010014 
    9790   -29788.264     -26555.4    132.50621   0.88833774 
    9800   -29788.444   -26555.447    135.96856   0.99204277 
    9810   -29788.605   -26555.387    125.53986    0.8804754 
    9820   -29788.768   -26553.924    123.72373   0.79262033 
    9830   -29788.928   -26552.624    130.63317   0.74068434 
    9840   -29789.087   -26554.132    133.14481   0.80911138 
    9850   -29789.257   -26557.302    135.82011   0.86132853 
    9860    -29789.42   -26558.979    134.55139   0.89230987 
    9870   -29789.599   -26559.838    144.00126   0.84432264 
    9880    -29789.77   -26560.896    140.66348    1.0540633 
    9890   -29789.936   -26561.806    133.58261   0.81063676 
    9900   -29790.101   -26561.814    135.62943   0.74876783 
    9910   -29790.264   -26561.779    138.23767   0.78615546 
    9920   -29790.436   -26562.934    140.17039   0.98927154 
    9930   -29790.597   -26564.942    139.66283   0.75400205 
    9940   -29790.763   -26566.174    140.38696   0.86786058 
    9950   -29790.925   -26564.478    140.08599   0.89795331 
    9960   -29791.081   -26561.586    130.08712     0.875807 
    9970   -29791.221   -26560.019    118.56135   0.88640654 
    9980   -29791.346   -26560.006    112.30234   0.90917152 
    9990   -29791.455   -26560.369    110.14884   0.87142498 
   10000   -29791.568   -26560.826    115.90853   0.89673862 
   10010   -29791.661   -26562.872    111.90929   0.87990636 
   10018   -29791.749   -26565.873    120.58162   0.80088351 
Loop time of 35.3078 on 1 procs for 10000 steps with 120 atoms

Performance: 6.118 ns/day, 3.923 hours/ns, 283.224 timesteps/s
97.6% CPU use with 1 MPI tasks x no OpenMP threads

MPI task timing breakdown:
Section |  min time  |  avg time  |  max time  |%varavg| %total
---------------------------------------------------------------
Pair    | 34.571     | 34.571     | 34.571     |   0.0 | 97.91
Neigh   | 0.0021657  | 0.0021657  | 0.0021657  |   0.0 |  0.01
Comm    | 0.021639   | 0.021639   | 0.021639   |   0.0 |  0.06
Output  | 0.55862    | 0.55862    | 0.55862    |   0.0 |  1.58
Modify  | 0.13189    | 0.13189    | 0.13189    |   0.0 |  0.37
Other   |            | 0.02263    |            |       |  0.06

Nlocal:    120 ave 120 max 120 min
Histogram: 1 0 0 0 0 0 0 0 0 0
Nghost:    0 ave 0 max 0 min
Histogram: 1 0 0 0 0 0 0 0 0 0
Neighs:    7140 ave 7140 max 7140 min
Histogram: 1 0 0 0 0 0 0 0 0 0

Total # of neighbors = 7140
Ave neighs/atom = 59.5
Neighbor list builds = 4
Dangerous builds = 0

# calculate dipole moment to output file "dipole.txt"

compute            3 all property/atom q xu yu zu
variable           dipolex atom c_3[1]*c_3[2]
variable           dipoley atom c_3[1]*c_3[3]
variable           dipolez atom c_3[1]*c_3[4]
compute            4 all reduce sum v_dipolex
compute            5 all reduce sum v_dipoley
compute            6 all reduce sum v_dipolez
variable           totaldipolex equal c_4
variable           totaldipoley equal c_5
variable           totaldipolez equal c_6
variable           mytime equal step*dt
fix                printdipole all ave/time 1 1 2 v_mytime v_totaldipolex v_totaldipoley v_totaldipolez file dipole.txt mode scalar format %.10f


timestep   0.25

run 100000
Per MPI rank memory allocation (min/avg/max) = 19.29 | 19.29 | 19.29 Mbytes
Step TotEng v_ep c_1 c_2 
   10018   -29791.749   -26565.873    120.58162   0.80088351 
   10020   -29791.766   -26566.403    120.83836   0.83127944 
   10030   -29791.857   -26567.032    119.41475   0.78205575 
   10040   -29791.964   -26565.023    126.10128    1.0240306 
   10050   -29792.041   -26562.969    118.64578   0.80913265 
   10060    -29792.13   -26563.659    120.36543   0.89195689 
   10070   -29792.208   -26563.192    117.03976     0.833492 
   10080   -29792.281   -26560.907    117.86606   0.81716581 
   10090   -29792.349   -26559.633    116.65647   0.79371486 
   10100   -29792.411   -26559.763    115.44951   0.73549462 
   10110    -29792.47   -26558.653    113.01692    0.7894855 
   10120   -29792.526   -26555.769    115.39432    0.8241431 
   10130   -29792.569   -26553.964    115.43173    0.9480558 
   10140   -29792.625   -26555.944    127.34494    1.1075441 
   10150   -29792.671   -26558.148    130.50609    1.0115325 
   10160   -29792.723   -26558.475    140.39721    0.9706779 
   10170   -29792.778   -26558.016    144.96207    1.0330264 
   10180   -29792.833   -26558.685    141.00268   0.88818849 
   10190   -29792.898   -26558.307    133.78284    1.0091484 
   10200   -29792.942    -26554.32    115.40018   0.89883552 
   10210   -29792.988   -26550.837    111.19405   0.88513383 
   10220   -29793.014   -26550.088    97.721429   0.74597721 
   10230   -29793.053   -26551.606     101.7502   0.76326253 
   10240   -29793.067   -26552.014    99.065543   0.79009186 
   10250   -29793.087   -26552.589    110.70164   0.86508489 
   10260   -29793.105   -26554.465     118.2876    0.9718796 
   10270   -29793.114   -26555.909    122.04659    1.0048677 
   10280    -29793.13   -26554.893    125.19943   0.89061691 
   10290   -29793.138   -26552.469    126.76758   0.97230683 
   10300   -29793.145   -26550.767    123.07956   0.83127619 
   10310   -29793.149   -26550.457    117.97907   0.93704335 
   10320   -29793.153   -26549.252    107.07256   0.98803148 
   10330   -29793.163   -26547.536    108.85558   0.96023895 
   10340   -29793.154   -26546.485    101.96032    1.0425851 
   10350   -29793.146   -26547.616    111.42899   0.88901489 
   10360   -29793.133   -26549.077    117.40151   0.97090357 
   10370   -29793.119    -26549.65    129.16548   0.97941295 
   10380   -29793.101   -26550.055     138.3756    1.0910661 
   10390   -29793.076   -26551.608    139.41081   0.94980095 
   10400    -29793.07   -26552.755     140.6306    1.0320756 
   10410    -29793.06    -26551.36    130.92403    1.0916282 
   10420   -29793.056   -26549.256    125.72084    1.1123171 
   10430   -29793.037   -26548.123    114.99679   0.90346895 
   10440   -29793.028   -26547.971    113.07241   0.80799122 
   10450   -29793.013   -26546.506    107.21941   0.79458564 
   10460   -29792.992   -26546.549    111.82606   0.86209098 
   10470    -29792.97    -26549.27    115.66734   0.98313689 
   10480   -29792.939   -26552.463    122.74688    1.1365626 
   10490   -29792.906   -26553.476     120.5342   0.89046219 
   10500   -29792.884   -26554.464    125.68014   0.93588579 
   10510   -29792.848   -26555.567    118.97991    1.0361703 
   10520   -29792.815   -26555.347    114.50503   0.97929861 
   10530   -29792.774   -26554.283    108.58687   0.98993666 
   10540   -29792.735   -26554.409    107.89701   0.90141706 
   10550     -29792.7   -26556.263     108.4072    0.8816718 
   10560   -29792.652   -26557.864    106.26795   0.97883306 
   10570   -29792.604   -26558.506     109.1226    1.0244108 
   10580   -29792.545   -26560.172    115.55794   0.90015818 
   10590   -29792.478   -26561.521    115.46951   0.81155787 
   10600   -29792.419   -26561.353    119.99337    1.0352157 
   10610   -29792.347   -26560.626    115.89072    1.0766693 
   10620   -29792.283   -26561.944    124.12651    1.0822647 
   10630   -29792.198   -26563.478    119.05285   0.95495403 
   10640   -29792.126    -26563.79    119.02177    1.1710996 
   10650   -29792.046   -26563.583    116.50425    1.0939113 
   10660   -29791.965   -26564.398    113.37974   0.87010493 
   10670   -29791.892    -26564.87    113.54093   0.99371635 
   10680   -29791.807   -26563.569    105.82676    1.1155752 
   10690   -29791.723   -26563.397     109.7112    1.0650635 
   10700   -29791.626   -26564.826    108.05244   0.86311354 
   10710    -29791.53   -26565.561    110.78642   0.97524452 
   10720   -29791.433   -26564.092    108.28396     1.142611 
   10730   -29791.331    -26562.47    107.73795   0.95007459 
   10740   -29791.226   -26562.342     108.2542    1.1059846 
   10750   -29791.115   -26561.412     103.3174    1.1495502 
   10760   -29791.008   -26558.509    102.54988   0.96869073 
   10770   -29790.894   -26556.902    104.81623   0.94309141 
   10780   -29790.766    -26558.25    113.05058    1.0656871 
   10790   -29790.626   -26559.694    115.30225    1.2036447 
   10800   -29790.483   -26559.671    126.42122    1.0269307 
   10810   -29790.321   -26558.226    126.66695    1.1309505 
   10820   -29790.175   -26558.281     139.2841    1.2756548 
   10830   -29790.004   -26557.523    127.41207    1.1709723 
   10840   -29789.862   -26555.406    130.58943    1.0712054 
   10850   -29789.708   -26552.314     123.6382    1.2151775 
   10860   -29789.564   -26552.237    124.82398    1.0051282 
   10870   -29789.424   -26554.659    117.73579   0.91961142 
   10880   -29789.287   -26555.872    119.52001    1.0629543 
   10890   -29789.145   -26555.534    133.39545    1.1014531 
   10900   -29788.988   -26555.882    134.62988   0.93323789 
   10910   -29788.848   -26558.347     140.8632      1.02972 
   10920   -29788.693   -26557.988    136.89497    1.0867242 
   10930   -29788.554   -26555.099     141.0505    1.0043439 
   10940    -29788.42   -26553.445    131.89149    1.0662379 
   10950   -29788.295   -26554.205    119.96074    1.0739609 
   10960   -29788.192   -26554.527     116.8792    1.1737945 
   10970   -29788.083   -26552.344     116.9408    1.1267101 
   10980   -29787.974   -26550.054    112.77052    1.2176788 
   10990   -29787.875   -26550.518     114.4139    1.1405022 
   11000   -29787.762   -26551.638    117.53878   0.98837828 
   11010   -29787.654   -26552.262    131.97668     1.107579 
   11020   -29787.529   -26553.487    131.07944    1.0389737 
   11030   -29787.427   -26556.806    135.42726    1.1152883 
   11040   -29787.317   -26559.063    139.00917    1.1944363 
   11050   -29787.205   -26557.955    142.55645    1.1552753 
   11060   -29787.104   -26555.337    137.52638    1.1437885 
   11070   -29787.017   -26554.633    132.94929    1.1631038 
   11080   -29786.933    -26555.49    137.57848     1.159991 
   11090   -29786.854   -26555.273    143.62914    1.1652293 
   11100   -29786.766   -26554.961    142.98911    1.1302892 
   11110   -29786.702    -26557.56    150.05259     1.169501 
   11120    -29786.63   -26560.247    152.04254    1.0516698 
   11130   -29786.576   -26560.525    155.31444     1.225426 
   11140   -29786.524   -26558.535    150.57594    1.3601271 
   11150   -29786.475     -26557.6    145.85951    1.1423708 
   11160   -29786.454   -26558.646    147.74255    1.2015581 
   11170   -29786.424   -26559.023    140.18871    1.2411305 
   11180   -29786.402   -26558.939    137.57858    1.2561648 
   11190   -29786.381   -26559.465    136.11478    1.0936167 
   11200   -29786.355   -26560.594    134.98752    1.0055404 
   11210   -29786.346   -26560.514    141.15528    1.1665559 
   11220   -29786.327   -26558.093    134.76203    1.2301031 
   11230   -29786.325   -26557.404    142.06629    1.2237557 
   11240   -29786.312   -26557.977    134.68716    1.2133997 
   11250   -29786.302   -26558.861    136.30171    1.0080485 
   11260   -29786.298   -26558.923    132.27021    1.1050711 
   11270    -29786.29   -26560.047    128.44029    1.1457014 
   11280   -29786.292   -26561.702    129.31545    1.1692932 
   11290   -29786.289   -26561.618    129.99583    1.4511867 
   11300   -29786.282   -26560.168    129.26093    1.2903584 
   11310    -29786.28   -26559.451    130.66036     1.095611 
   11320   -29786.267   -26559.024    115.58915    1.1088839 
   11330   -29786.273   -26558.648    120.60005    1.2548395 
   11340   -29786.252   -26558.242    103.36287    1.0631394 
   11350   -29786.262   -26559.966    116.62232    1.0506612 
   11360   -29786.227   -26558.873    104.75377    1.1787413 
   11370    -29786.22   -26556.582    117.60641    1.0620831 
   11380   -29786.193   -26554.933    115.38493    1.0359289 
   11390   -29786.176   -26555.692    119.98463    1.2239742 
   11400    -29786.15   -26555.291    124.53269   0.99674845 
   11410   -29786.118   -26553.779    125.09375     1.002988 
   11420   -29786.095    -26554.48    131.45865     1.061135 
   11430    -29786.07   -26555.679    128.93944    1.1945205 
   11440   -29786.042   -26555.169    130.32803    1.2457377 
   11450   -29786.015   -26553.064     131.8879    1.0441208 
   11460   -29785.991   -26552.253    129.86834    1.1301818 
   11470   -29785.971   -26553.711      129.786    1.2376588 
   11480   -29785.942   -26554.223    128.31903    1.1690219 
   11490   -29785.918   -26553.931    129.97086    1.2650815 
   11500   -29785.897   -26553.783    130.86861    1.1089535 
   11510   -29785.873    -26554.03    124.01272    1.1414056 
   11520   -29785.859   -26553.537    128.04177    1.1885942 
   11530   -29785.829    -26551.14    123.69509    1.1480015 
   11540   -29785.805   -26549.086    124.06216    1.0400997 
   11550   -29785.779   -26548.408    114.77092   0.99014432 
   11560   -29785.762   -26549.295    120.60595    1.0522862 
   11570   -29785.738   -26549.552    123.61209    1.1088291 
   11580   -29785.704   -26549.216     128.8873     1.019246 
   11590    -29785.67   -26549.772    134.14904    1.1843416 
   11600   -29785.637   -26550.711    143.36767   0.99479452 
   11610   -29785.612   -26550.543    149.98243    1.1029388 
   11620   -29785.583   -26549.331    154.81713    1.1203465 
   11630   -29785.562   -26550.081    156.13456    1.1356323 
   11640   -29785.558   -26553.402    160.79827    1.2656313 
   11650   -29785.553   -26554.861    155.27899    1.1588907 
   11660   -29785.564    -26552.94    152.35917    1.1093103 
   11670   -29785.562   -26549.594    138.45612    1.1108394 
   11680   -29785.573   -26548.324    136.27911    1.1405786 
   11690   -29785.584   -26547.892    133.42078    1.0894009 
   11700   -29785.599   -26545.513    134.95181   0.97378049 
   11710   -29785.609   -26543.799    132.02542     1.063279 
[...]
  106990    -29796.49   -26559.533    111.48758   0.96569894 
  107000   -29796.529   -26560.711    115.20373     1.115582 
  107010   -29796.549   -26560.697    100.67706   0.85774822 
  107020   -29796.577   -26560.822    97.980737     0.975013 
  107030   -29796.606   -26561.005    99.463021    1.0378126 
  107040    -29796.62   -26561.089      99.3083    1.0841239 
  107050   -29796.626   -26560.468    88.656039   0.89861415 
  107060   -29796.638   -26560.409    93.155415   0.99903999 
  107070   -29796.692   -26561.017     97.85061   0.90468866 
  107080   -29796.693   -26563.249    104.66203    1.1185324 
  107090   -29796.682   -26564.857    93.352062    1.0175948 
  107100   -29796.667   -26566.209    100.32673    1.1036292 
  107110   -29796.627   -26565.373    97.119228   0.96160296 
  107120   -29796.607    -26564.36    102.80196   0.86267905 
  107130   -29796.568   -26563.693    93.725631   0.93455187 
  107140   -29796.523   -26564.253    107.20368    1.0434205 
  107150   -29796.477   -26564.312    111.85478    1.1217176 
  107160   -29796.434   -26564.675     115.7512    1.1067069 
  107170   -29796.375   -26565.405    108.54888    1.1433077 
  107180   -29796.317   -26565.544    113.25966    1.1747073 
  107190   -29796.256   -26563.749    111.87057   0.85848849 
  107200   -29796.189   -26561.673    107.93715    1.0416675 
  107210    -29796.12       -26562    104.63169    1.1062408 
  107220   -29796.054    -26564.52    109.11767   0.87104868 
  107230   -29795.977   -26565.874    115.38004   0.93089011 
  107240    -29795.82   -26565.363    111.82004    1.0578877 
  107250   -29795.738   -26566.409    110.16024   0.95319122 
  107260   -29795.654   -26568.514    116.26163   0.94951881 
  107270   -29795.559   -26568.504    116.69739    1.0913729 
  107280   -29795.469   -26566.049    114.48554    1.1598041 
  107290   -29795.368     -26565.1    105.87003   0.95325686 
  107300   -29795.275   -26567.352    110.92543    1.0464759 
  107310   -29795.159   -26567.946    106.97067    1.0047753 
  107320   -29795.065   -26566.193    102.72354    1.1141805 
  107330   -29794.961   -26564.832    94.814647   0.94904503 
  107340   -29794.862   -26565.708    103.76268    1.0472954 
  107350    -29794.74   -26566.182    105.05926     1.030487 
  107360   -29794.625   -26565.645    108.97889   0.91432154 
  107370   -29794.484   -26564.892    105.50592    1.0192786 
  107380   -29794.358   -26566.568    123.79618    1.0350802 
  107390   -29794.208   -26568.555    124.18146    1.1811375 
  107400   -29794.068   -26568.933    128.25831    1.4185877 
  107410   -29793.905   -26566.865    120.15078    1.2388627 
  107420   -29793.764   -26565.925    128.17781    0.9359512 
  107430   -29793.627   -26565.826     117.1088    1.0561563 
  107440   -29793.488   -26564.999    109.58088    1.0217678 
  107450   -29793.365   -26563.019    106.04922    1.1930357 
  107460   -29793.237   -26563.014    112.43908     1.096066 
  107470   -29793.092   -26565.102    114.42505    1.0143926 
  107480   -29792.959   -26565.287    107.94966   0.96301446 
  107490   -29792.832   -26563.294    117.61638   0.99999843 
  107500   -29792.675   -26561.519    121.62855    1.1971599 
  107510   -29792.538   -26562.688    123.47133    1.0151361 
  107520   -29792.401   -26563.791    115.77555    1.0701951 
  107530    -29792.26   -26563.031    121.75478    1.1482338 
  107540   -29792.125   -26563.408    128.40847     1.108235 
  107550    -29792.05   -26565.716    124.08637     1.065075 
  107560   -29791.913   -26566.414    117.88287    1.1950601 
  107570   -29791.795   -26564.484    122.54642    1.1656945 
  107580   -29791.667   -26562.823    122.57055    1.0039089 
  107590   -29791.547   -26563.904    116.56368    1.0185128 
  107600   -29791.429   -26565.094    114.81274   0.90909284 
  107610   -29791.328   -26565.003    122.00367    1.1872202 
  107620   -29791.211   -26565.705    117.86134    1.2472534 
  107630   -29791.101    -26565.81    112.89631    1.0687517 
  107640   -29790.998   -26564.356    110.87018    1.0790174 
  107650   -29790.895   -26561.602    117.24502   0.98968046 
  107660    -29790.78    -26559.88    107.45353   0.77454677 
  107670     -29790.7   -26561.389    113.59881    1.0906788 
  107680   -29790.591   -26562.605    111.79853    1.0617805 
  107690   -29790.496   -26564.598    128.48199    1.1448758 
  107700   -29790.387   -26564.819    115.01422    1.0186287 
  107710   -29790.305   -26564.756    119.96417    1.1899632 
  107720   -29790.202   -26563.735    115.22847    1.2689929 
  107730   -29790.107   -26562.446    117.53205    1.2781101 
  107740   -29790.021   -26561.356    114.99089    1.1819338 
  107750    -29789.86   -26560.635     114.7012    1.2096806 
  107760   -29789.775   -26561.907    122.82145    1.0632124 
  107770   -29789.679    -26563.38     119.5196    1.1594352 
  107780   -29789.598   -26563.093     121.5663    1.2004833 
  107790   -29789.488   -26561.969    115.31581    1.0695889 
  107800   -29789.421    -26561.43    113.51194    1.1297847 
  107810   -29789.338    -26560.95    110.58094    1.0846621 
  107820   -29789.242   -26560.104    106.30291   0.92647834 
  107830   -29789.186   -26560.765    113.89064    1.0896793 
  107840   -29789.092   -26562.381    109.94696     1.052366 
  107850   -29789.006   -26564.022    123.96925    1.0109784 
  107860   -29788.916   -26563.063    119.74941    1.1598063 
  107870   -29788.831   -26561.716    129.22776    1.1745404 
  107880   -29788.733    -26560.78    120.93405   0.98540799 
  107890   -29788.654   -26561.738     130.6469    1.1811017 
  107900   -29788.628   -26561.922    126.74794    1.1210304 
  107910   -29788.547   -26562.969    127.51513    1.2634997 
  107920   -29788.467   -26563.752     123.7262   0.97586446 
  107930    -29788.39   -26565.214    129.14451    1.1734892 
  107940   -29788.302   -26565.653    134.62256    1.0665208 
  107950   -29788.231   -26564.846    129.25342    1.0172331 
  107960   -29788.147   -26564.755    133.03677    1.1088347 
  107970   -29788.072    -26565.29    129.94585    1.0282984 
  107980   -29788.016   -26567.438    139.43575    1.0997899 
  107990   -29787.927   -26567.506    123.68955     1.159315 
  108000    -29787.88   -26566.324    125.97842    1.2436171 
  108010   -29787.809   -26565.355    121.61434     1.083203 
  108020   -29787.753   -26565.023    127.17378   0.95542957 
  108030   -29787.688   -26563.354    122.42417    1.0188648 
  108040    -29787.62   -26561.714    116.52452   0.95370274 
  108050   -29787.579   -26562.857    130.00276    1.1649919 
  108060   -29787.493    -26564.83    133.03928    1.0203094 
  108070   -29787.443   -26566.036    135.37846    1.1677178 
  108080   -29787.372   -26565.988    127.56246    1.1319278 
  108090   -29787.309   -26565.695    134.87175    1.0676898 
  108100    -29787.26   -26563.493     138.2074    1.2299124 
  108110   -29787.191   -26560.391    122.20984   0.94716479 
  108120   -29787.144   -26560.422    122.16148   0.87042941 
  108130   -29787.084   -26561.883    120.76046   0.99906261 
  108140   -29786.956   -26562.915    134.59896    1.1722214 
  108150   -29786.893   -26562.388     120.9191   0.97723481 
  108160    -29786.85   -26564.346    126.35728   0.98700709 
  108170   -29786.777   -26565.409    130.63498   0.85735866 
  108180   -29786.731   -26562.558    143.03241   0.95042803 
  108190   -29786.653   -26559.041    130.50897    1.0963225 
  108200   -29786.613   -26560.355    132.41636    1.0228323 
  108210   -29786.553   -26562.405    135.47662    1.0531559 
  108220   -29786.504   -26560.967     140.9863    1.1133022 
  108230   -29786.459   -26557.608    125.50209    1.1398663 
  108240   -29786.399   -26557.448    124.44838     1.090123 
  108250   -29786.353   -26557.208    128.36509     1.207804 
  108260   -29786.309   -26554.339    130.24804    1.0823222 
  108270   -29786.251   -26551.713    118.79262    1.1330145 
  108280    -29786.22   -26553.386    118.81932    1.0658073 
  108290   -29786.167   -26557.082    133.17575     1.073021 
  108300   -29786.099   -26556.455    129.83893     1.009482 
  108310   -29786.053    -26554.31    130.85544     1.058248 
  108320   -29785.983   -26554.277    132.71142   0.89710907 
  108330   -29785.949   -26555.802    148.86544    1.0391799 
  108340   -29785.884   -26554.388    145.94898     1.043138 
  108350   -29785.837   -26551.635    134.05999    1.0465646 
  108360   -29785.796     -26554.8    144.28581    1.1359157 
  108370    -29785.74   -26558.841    143.97809    1.0731188 
  108380   -29785.705   -26558.636     147.2835   0.86519384 
  108390   -29785.648   -26553.961    126.66403   0.89727596 
  108400   -29785.631   -26552.898    140.85755    1.0480116 
  108410   -29785.593   -26553.359    144.99527    1.1729619 
  108420    -29785.56   -26551.513     131.6923    0.9543832 
  108430   -29785.534    -26550.44    121.21988    1.0078167 
  108440   -29785.496   -26553.107    116.42273    1.0027372 
  108450   -29785.477   -26557.149    130.65066     1.031702 
  108460   -29785.424   -26556.402    110.00933   0.83151015 
  108470   -29785.415   -26554.273    118.03836    1.0926319 
  108480   -29785.361   -26553.452    122.99786   0.81174314 
  108490   -29785.326   -26555.311    145.39584     1.016486 
  108500    -29785.28    -26556.42    134.14824    1.1769907 
  108510   -29785.234   -26557.735    132.18136   0.98840497 
  108520     -29785.2   -26559.113    145.61786    1.0442205 
  108530   -29785.149   -26560.139    143.69243   0.91031672 
  108540   -29785.128   -26559.776    143.62716   0.89888081 
  108550   -29785.076   -26556.484    131.45664    0.9768705 
  108560    -29785.06     -26553.4    155.17943     1.099972 
  108570    -29785.02   -26552.389    151.22493    1.0774514 
  108580   -29785.089   -26554.979    146.21641   0.99620396 
  108590    -29785.06   -26556.642    139.31243    1.1368835 
  108600   -29785.049   -26556.976    148.59926    1.0053805 
  108610   -29785.037   -26557.305    144.44186    1.0316683 
  108620   -29785.016   -26557.398    131.18834    1.0490592 
  108630   -29785.018   -26554.309    128.06922   0.96529573 
  108640   -29785.013   -26549.879    139.19644    1.0084698 
  108650   -29785.003   -26549.854    142.16534    1.1011658 
  108660   -29784.995   -26554.375    137.24146   0.96444872 
  108670   -29784.996   -26558.086    143.53231     1.013927 
  108680   -29784.989   -26557.827     150.2996    1.0580535 
  108690   -29784.996   -26556.978    147.55894    1.0927246 
  108700   -29785.004   -26556.274     134.3256    1.0062202 
  108710    -29785.01   -26552.823    129.87056   0.96852226 
  108720   -29785.024   -26548.268    132.51676   0.95847662 
  108730   -29785.036   -26547.897    134.18248    0.8629365 
  108740   -29785.045   -26552.674    132.91495   0.94117912 
  108750   -29785.056   -26556.011    133.60547   0.98777395 
  108760   -29785.075   -26555.866     139.7424    0.9788044 
  108770   -29785.093   -26554.611    133.98714    1.0731689 
  108780   -29785.017   -26553.516    128.73316   0.97675134 
  108790   -29785.036   -26550.716     124.2087    1.0112672 
  108800   -29785.054   -26547.847    126.41721    0.9345962 
  108810   -29785.064   -26549.443    127.76379   0.83185218 
  108820   -29785.079   -26553.716    120.78239   0.86014177 
  108830   -29785.102   -26557.344    130.68345   0.98008557 
  108840   -29785.111    -26558.35    129.02707    1.0393024 
  108850   -29785.132   -26559.583    139.65915    1.2302977 
  108860   -29785.137   -26557.981    129.04052   0.92516504 
  108870   -29785.175   -26554.194    133.49142   0.99470103 
  108880   -29785.179   -26552.731    128.71493   0.92936255 
  108890   -29785.204   -26555.846    124.14609    1.0572232 
  108900   -29785.224   -26559.217    122.50344    1.0129635 
  108910   -29785.236   -26560.056    116.33586   0.90932516 
  108920   -29785.257   -26561.187     127.6693    1.0856703 
  108930   -29785.259   -26561.015    118.40785     1.048441 
  108940   -29785.286   -26558.528    128.67796   0.92578009 
  108950   -29785.283   -26554.214    120.44539   0.83789353 
  108960   -29785.314   -26554.985    139.01063    1.0954229 
  108970   -29785.323   -26558.478    130.76276   0.99567547 
  108980   -29785.343   -26561.933    134.70774    1.1157106 
  108990   -29785.352    -26562.18    131.21262    1.0771206 
  109000   -29785.368    -26561.29    137.10911   0.93155466 
  109010   -29785.395   -26559.865    140.65018   0.99962953 
  109020   -29785.418   -26557.056    134.12672    1.0480696 
  109030   -29785.447   -26554.401    138.43784    1.0522254 
  109040   -29785.474   -26553.419    145.13273    1.0268432 
  109050   -29785.507   -26555.993    144.83255    1.0872566 
  109060   -29785.551   -26559.184    142.33486   0.87219961 
  109070   -29785.594   -26559.702    138.59107   0.92800927 
  109080   -29785.651   -26558.367    152.95132    1.0268425 
  109090   -29785.703   -26557.204     143.1692    1.0150137 
  109100   -29785.784   -26557.916    145.81259   0.95521931 
  109110   -29785.836   -26556.555    139.43952   0.79424971 
  109120   -29785.936   -26555.561    157.96957    1.1099245 
  109130   -29786.013   -26556.437    140.41977   0.93677333 
  109140   -29786.112   -26560.937    135.90481   0.92124576 
  109150   -29786.192   -26562.768    131.93135    1.0194341 
  109160   -29786.298   -26560.239    139.49404   0.93407238 
  109170   -29786.411   -26557.742    138.33728    1.0390989 
  109180   -29786.504   -26557.054    124.21119   0.96757001 
  109190   -29786.617   -26556.893    132.75469   0.96550627 
  109200   -29786.731   -26555.991    135.00743   0.93634454 
  109210   -29786.869   -26558.241    139.25614    1.0336404 
  109220   -29786.974   -26561.781    126.76507   0.87013274 
  109230   -29787.109   -26562.776    135.34038    1.1203549 
  109240   -29787.246   -26559.575    139.97103   0.92051501 
  109250   -29787.393   -26555.954      137.161   0.80675006 
  109260    -29787.53   -26554.725    130.81167   0.77821309 
  109270   -29787.679    -26554.81     129.6974   0.85080861 
  109280    -29787.84   -26555.459    137.96324    1.0244935 
  109290   -29787.992   -26556.518     126.4254    1.0810319 
  109300   -29788.142   -26558.151    119.79885   0.94560485 
  109310   -29788.286   -26558.488    123.71172   0.86621631 
  109320   -29788.443   -26556.684    125.91299   0.93203117 
  109330   -29788.591   -26554.196    125.31742   0.96674385 
  109340   -29788.737   -26552.002    115.18029   0.98074422 
  109350   -29788.887   -26552.098    128.15755   0.71995323 
  109360   -29789.038    -26553.32    125.34711    1.0114303 
  109370   -29789.196   -26554.111    131.23428   0.92701695 
  109380   -29789.358   -26554.821    124.97599   0.95831862 
  109390   -29789.522    -26555.88    143.13842   0.99225381 
  109400   -29789.691   -26554.125    135.80326    1.0485593 
  109410   -29789.881   -26550.946    138.81163    1.0292047 
  109420    -29790.03   -26546.999    118.38506   0.98694213 
  109430   -29790.196   -26546.864    127.44856    1.1140469 
  109440   -29790.328   -26546.998    112.23283   0.81864343 
  109450   -29790.485   -26548.139    116.71094   0.84431158 
  109460   -29790.599   -26549.155    108.78423   0.95283315 
  109470   -29790.744    -26549.92    122.25678       1.0225 
  109480   -29790.873   -26549.675    120.74234    1.0557096 
  109490   -29791.007   -26549.125    120.59602   0.94565026 
  109500   -29791.123    -26548.69    115.48311   0.87201097 
  109510   -29791.248   -26548.417    122.59668   0.92304576 
  109520   -29791.365   -26549.124    124.24281    1.0030272 
  109530   -29791.484   -26551.566    122.55006   0.83464891 
  109540   -29791.593   -26553.115    120.99947   0.86896795 
  109550   -29791.719   -26553.309    132.12914   0.99187326 
  109560   -29791.837   -26552.638    134.37429    1.0531233 
  109570   -29791.956   -26552.913    133.49951   0.90390356 
  109580   -29792.068   -26552.536    122.89515   0.95100097 
  109590   -29792.178   -26550.854    126.70804   0.95038188 
  109600   -29792.277   -26550.974    124.90663   0.98117559 
  109610   -29792.379   -26553.381    116.51923   0.87045546 
  109620   -29792.463   -26555.538    113.07012   0.92812274 
  109630   -29792.551   -26555.385      118.883    1.0189751 
  109640   -29792.643   -26554.612     129.0248    1.0284746 
  109650    -29792.72   -26555.775    125.16258   0.87119857 
  109660   -29792.812   -26557.185    124.26821   0.91445887 
  109670   -29792.904   -26557.246    132.44984   0.90743898 
  109680   -29792.989   -26557.099    135.18133    1.0517191 
  109690   -29793.067   -26558.846    128.35488   0.96014114 
  109700   -29793.148   -26561.802    126.77636   0.84600779 
  109710   -29793.231   -26561.211    129.09765    1.0849427 
  109720   -29793.307    -26558.33    134.20103     1.000521 
  109730   -29793.375    -26556.02    118.41697   0.89553963 
  109740    -29793.45    -26556.61    118.10236   0.90279964 
  109750   -29793.502   -26556.502    113.73168   0.92037305 
  109760    -29793.57   -26555.734    118.14565   0.87707702 
  109770    -29793.62   -26555.952    103.87957   0.84962293 
  109780   -29793.663   -26557.572    105.35463   0.95111363 
  109790   -29793.701   -26557.465    103.57019   0.96621199 
  109800   -29793.746   -26555.027    105.05337   0.92016261 
  109810   -29793.768   -26552.441    94.013909   0.76930406 
  109820   -29793.788   -26553.167    94.942571   0.88377312 
  109830   -29793.804   -26554.693    102.07393   0.79331055 
  109840   -29793.819   -26555.042    108.22646   0.93335203 
  109850   -29793.822    -26554.93    103.19899   0.99648028 
  109860   -29793.824   -26556.584    111.41647   0.88078728 
  109870   -29793.827    -26557.35    112.41946    1.1306548 
  109880    -29793.82   -26554.701    114.54999   0.85841272 
  109890   -29793.809   -26550.785    98.190604   0.83208644 
  109900     -29793.8   -26550.539    105.30995   0.88131646 
  109910   -29793.778   -26552.321    108.92955   0.94887705 
  109920    -29793.76   -26552.842     116.1384     1.011409 
  109930    -29793.72   -26552.871    113.46996   0.91983198 
  109940   -29793.702   -26555.022    122.71456   0.89443858 
  109950   -29793.673   -26556.017    135.72044    1.0366778 
  109960   -29793.634   -26553.905    127.83008    1.0209612 
  109970   -29793.618   -26551.833    127.23527    1.2210327 
  109980   -29793.569   -26552.179    123.06772    1.0559588 
  109990   -29793.558   -26554.385     134.4342    1.0633842 
  110000   -29793.501   -26554.333    118.81704    1.0415326 
  110010   -29793.484    -26555.39    121.95726    1.0285723 
  110018   -29793.449   -26556.205    120.83775    1.0423578 
Loop time of 390.503 on 1 procs for 100000 steps with 120 atoms

Performance: 5.531 ns/day, 4.339 hours/ns, 256.080 timesteps/s
97.8% CPU use with 1 MPI tasks x no OpenMP threads

MPI task timing breakdown:
Section |  min time  |  avg time  |  max time  |%varavg| %total
---------------------------------------------------------------
Pair    | 380.35     | 380.35     | 380.35     |   0.0 | 97.40
Neigh   | 0.047642   | 0.047642   | 0.047642   |   0.0 |  0.01
Comm    | 0.23516    | 0.23516    | 0.23516    |   0.0 |  0.06
Output  | 5.5948     | 5.5948     | 5.5948     |   0.0 |  1.43
Modify  | 4.0433     | 4.0433     | 4.0433     |   0.0 |  1.04
Other   |            | 0.2277     |            |       |  0.06

Nlocal:    120 ave 120 max 120 min
Histogram: 1 0 0 0 0 0 0 0 0 0
Nghost:    0 ave 0 max 0 min
Histogram: 1 0 0 0 0 0 0 0 0 0
Neighs:    7140 ave 7140 max 7140 min
Histogram: 1 0 0 0 0 0 0 0 0 0

Total # of neighbors = 7140
Ave neighs/atom = 59.5
Neighbor list builds = 93
Dangerous builds = 0



Please see the log.cite file for references relevant to this simulation

Total wall time: 0:07:05
