#water

27 atoms
8 atom types

-40.000 40.000 xlo xhi
-40.000 40.000 ylo yhi
-40.000 40.000 zlo zhi

Masses 

1   1.0080 #H 
2   15.9994 #O 
3   0.01 #El 
4   35.453 #Cl
5   22.99  #Na
6   40.078 #Ca
7   126.90447 #I
8   1.0

Atoms

1 2   1.0 -0.2079 0.0346 -0.0279
2 3  -1.0 -0.13598 0.0210116 -0.0299011
3 1   1.0 0.2428 -0.7786 0.1997
4 3  -1.0 0.0887267 -0.452816 0.106158 
5 1   1.0 0.4928 0.6327 -0.2879
6 3  -1.0 0.236827 0.383648 -0.182832
7 8   1.0 -2.0 0.0 0.0
8 8   1.0 -1.8 0.0 0.0
9 8   1.0 -1.6 0.0 0.0
10 8   1.0 -1.4 0.0 0.0
11 8   1.0 -1.2 0.0 0.0
12 8   1.0 -1.0 0.0 0.0
13 8   1.0 -0.8 0.0 0.0
14 8   1.0 -0.6 0.0 0.0
15 8   1.0 -0.4 0.0 0.0
16 8   1.0 -0.2 0.0 0.0
17 8   1.0 -0.0 0.0 0.0
18 8   1.0  0.2 0.0 0.0
19 8   1.0  0.4 0.0 0.0
20 8   1.0  0.6 0.0 0.0
21 8   1.0  0.8 0.0 0.0
22 8   1.0  1.0 0.0 0.0
23 8   1.0  1.2 0.0 0.0
24 8   1.0  1.4 0.0 0.0
25 8   1.0  1.6 0.0 0.0
26 8   1.0  1.8 0.0 0.0
27 8   1.0  2.0 0.0 0.0

